<?xml version="1.0"?>
<VTKFile type="UnstructuredGrid"  version="0.1"  >
<UnstructuredGrid>
<Piece  NumberOfPoints="4225" NumberOfCells="8192">
<Points>
<DataArray  type="Float64"  NumberOfComponents="3"  format="ascii">0 0 0  0.015625 0 0  0.03125 0 0  0.046875 0 0  0.0625 0 0  0.078125 0 0  0.09375 0 0  0.109375 0 0  0.125 0 0  0.140625 0 0  0.15625 0 0  0.171875 0 0  0.1875 0 0  0.203125 0 0  0.21875 0 0  0.234375 0 0  0.25 0 0  0.265625 0 0  0.28125 0 0  0.296875 0 0  0.3125 0 0  0.328125 0 0  0.34375 0 0  0.359375 0 0  0.375 0 0  0.390625 0 0  0.40625 0 0  0.421875 0 0  0.4375 0 0  0.453125 0 0  0.46875 0 0  0.484375 0 0  0.5 0 0  0.515625 0 0  0.53125 0 0  0.546875 0 0  0.5625 0 0  0.578125 0 0  0.59375 0 0  0.609375 0 0  0.625 0 0  0.640625 0 0  0.65625 0 0  0.671875 0 0  0.6875 0 0  0.703125 0 0  0.71875 0 0  0.734375 0 0  0.75 0 0  0.765625 0 0  0.78125 0 0  0.796875 0 0  0.8125 0 0  0.828125 0 0  0.84375 0 0  0.859375 0 0  0.875 0 0  0.890625 0 0  0.90625 0 0  0.921875 0 0  0.9375 0 0  0.953125 0 0  0.96875 0 0  0.984375 0 0  1 0 0  0 0.015625 0  0.015625 0.015625 0  0.03125 0.015625 0  0.046875 0.015625 0  0.0625 0.015625 0  0.078125 0.015625 0  0.09375 0.015625 0  0.109375 0.015625 0  0.125 0.015625 0  0.140625 0.015625 0  0.15625 0.015625 0  0.171875 0.015625 0  0.1875 0.015625 0  0.203125 0.015625 0  0.21875 0.015625 0  0.234375 0.015625 0  0.25 0.015625 0  0.265625 0.015625 0  0.28125 0.015625 0  0.296875 0.015625 0  0.3125 0.015625 0  0.328125 0.015625 0  0.34375 0.015625 0  0.359375 0.015625 0  0.375 0.015625 0  0.390625 0.015625 0  0.40625 0.015625 0  0.421875 0.015625 0  0.4375 0.015625 0  0.453125 0.015625 0  0.46875 0.015625 0  0.484375 0.015625 0  0.5 0.015625 0  0.515625 0.015625 0  0.53125 0.015625 0  0.546875 0.015625 0  0.5625 0.015625 0  0.578125 0.015625 0  0.59375 0.015625 0  0.609375 0.015625 0  0.625 0.015625 0  0.640625 0.015625 0  0.65625 0.015625 0  0.671875 0.015625 0  0.6875 0.015625 0  0.703125 0.015625 0  0.71875 0.015625 0  0.734375 0.015625 0  0.75 0.015625 0  0.765625 0.015625 0  0.78125 0.015625 0  0.796875 0.015625 0  0.8125 0.015625 0  0.828125 0.015625 0  0.84375 0.015625 0  0.859375 0.015625 0  0.875 0.015625 0  0.890625 0.015625 0  0.90625 0.015625 0  0.921875 0.015625 0  0.9375 0.015625 0  0.953125 0.015625 0  0.96875 0.015625 0  0.984375 0.015625 0  1 0.015625 0  0 0.03125 0  0.015625 0.03125 0  0.03125 0.03125 0  0.046875 0.03125 0  0.0625 0.03125 0  0.078125 0.03125 0  0.09375 0.03125 0  0.109375 0.03125 0  0.125 0.03125 0  0.140625 0.03125 0  0.15625 0.03125 0  0.171875 0.03125 0  0.1875 0.03125 0  0.203125 0.03125 0  0.21875 0.03125 0  0.234375 0.03125 0  0.25 0.03125 0  0.265625 0.03125 0  0.28125 0.03125 0  0.296875 0.03125 0  0.3125 0.03125 0  0.328125 0.03125 0  0.34375 0.03125 0  0.359375 0.03125 0  0.375 0.03125 0  0.390625 0.03125 0  0.40625 0.03125 0  0.421875 0.03125 0  0.4375 0.03125 0  0.453125 0.03125 0  0.46875 0.03125 0  0.484375 0.03125 0  0.5 0.03125 0  0.515625 0.03125 0  0.53125 0.03125 0  0.546875 0.03125 0  0.5625 0.03125 0  0.578125 0.03125 0  0.59375 0.03125 0  0.609375 0.03125 0  0.625 0.03125 0  0.640625 0.03125 0  0.65625 0.03125 0  0.671875 0.03125 0  0.6875 0.03125 0  0.703125 0.03125 0  0.71875 0.03125 0  0.734375 0.03125 0  0.75 0.03125 0  0.765625 0.03125 0  0.78125 0.03125 0  0.796875 0.03125 0  0.8125 0.03125 0  0.828125 0.03125 0  0.84375 0.03125 0  0.859375 0.03125 0  0.875 0.03125 0  0.890625 0.03125 0  0.90625 0.03125 0  0.921875 0.03125 0  0.9375 0.03125 0  0.953125 0.03125 0  0.96875 0.03125 0  0.984375 0.03125 0  1 0.03125 0  0 0.046875 0  0.015625 0.046875 0  0.03125 0.046875 0  0.046875 0.046875 0  0.0625 0.046875 0  0.078125 0.046875 0  0.09375 0.046875 0  0.109375 0.046875 0  0.125 0.046875 0  0.140625 0.046875 0  0.15625 0.046875 0  0.171875 0.046875 0  0.1875 0.046875 0  0.203125 0.046875 0  0.21875 0.046875 0  0.234375 0.046875 0  0.25 0.046875 0  0.265625 0.046875 0  0.28125 0.046875 0  0.296875 0.046875 0  0.3125 0.046875 0  0.328125 0.046875 0  0.34375 0.046875 0  0.359375 0.046875 0  0.375 0.046875 0  0.390625 0.046875 0  0.40625 0.046875 0  0.421875 0.046875 0  0.4375 0.046875 0  0.453125 0.046875 0  0.46875 0.046875 0  0.484375 0.046875 0  0.5 0.046875 0  0.515625 0.046875 0  0.53125 0.046875 0  0.546875 0.046875 0  0.5625 0.046875 0  0.578125 0.046875 0  0.59375 0.046875 0  0.609375 0.046875 0  0.625 0.046875 0  0.640625 0.046875 0  0.65625 0.046875 0  0.671875 0.046875 0  0.6875 0.046875 0  0.703125 0.046875 0  0.71875 0.046875 0  0.734375 0.046875 0  0.75 0.046875 0  0.765625 0.046875 0  0.78125 0.046875 0  0.796875 0.046875 0  0.8125 0.046875 0  0.828125 0.046875 0  0.84375 0.046875 0  0.859375 0.046875 0  0.875 0.046875 0  0.890625 0.046875 0  0.90625 0.046875 0  0.921875 0.046875 0  0.9375 0.046875 0  0.953125 0.046875 0  0.96875 0.046875 0  0.984375 0.046875 0  1 0.046875 0  0 0.0625 0  0.015625 0.0625 0  0.03125 0.0625 0  0.046875 0.0625 0  0.0625 0.0625 0  0.078125 0.0625 0  0.09375 0.0625 0  0.109375 0.0625 0  0.125 0.0625 0  0.140625 0.0625 0  0.15625 0.0625 0  0.171875 0.0625 0  0.1875 0.0625 0  0.203125 0.0625 0  0.21875 0.0625 0  0.234375 0.0625 0  0.25 0.0625 0  0.265625 0.0625 0  0.28125 0.0625 0  0.296875 0.0625 0  0.3125 0.0625 0  0.328125 0.0625 0  0.34375 0.0625 0  0.359375 0.0625 0  0.375 0.0625 0  0.390625 0.0625 0  0.40625 0.0625 0  0.421875 0.0625 0  0.4375 0.0625 0  0.453125 0.0625 0  0.46875 0.0625 0  0.484375 0.0625 0  0.5 0.0625 0  0.515625 0.0625 0  0.53125 0.0625 0  0.546875 0.0625 0  0.5625 0.0625 0  0.578125 0.0625 0  0.59375 0.0625 0  0.609375 0.0625 0  0.625 0.0625 0  0.640625 0.0625 0  0.65625 0.0625 0  0.671875 0.0625 0  0.6875 0.0625 0  0.703125 0.0625 0  0.71875 0.0625 0  0.734375 0.0625 0  0.75 0.0625 0  0.765625 0.0625 0  0.78125 0.0625 0  0.796875 0.0625 0  0.8125 0.0625 0  0.828125 0.0625 0  0.84375 0.0625 0  0.859375 0.0625 0  0.875 0.0625 0  0.890625 0.0625 0  0.90625 0.0625 0  0.921875 0.0625 0  0.9375 0.0625 0  0.953125 0.0625 0  0.96875 0.0625 0  0.984375 0.0625 0  1 0.0625 0  0 0.078125 0  0.015625 0.078125 0  0.03125 0.078125 0  0.046875 0.078125 0  0.0625 0.078125 0  0.078125 0.078125 0  0.09375 0.078125 0  0.109375 0.078125 0  0.125 0.078125 0  0.140625 0.078125 0  0.15625 0.078125 0  0.171875 0.078125 0  0.1875 0.078125 0  0.203125 0.078125 0  0.21875 0.078125 0  0.234375 0.078125 0  0.25 0.078125 0  0.265625 0.078125 0  0.28125 0.078125 0  0.296875 0.078125 0  0.3125 0.078125 0  0.328125 0.078125 0  0.34375 0.078125 0  0.359375 0.078125 0  0.375 0.078125 0  0.390625 0.078125 0  0.40625 0.078125 0  0.421875 0.078125 0  0.4375 0.078125 0  0.453125 0.078125 0  0.46875 0.078125 0  0.484375 0.078125 0  0.5 0.078125 0  0.515625 0.078125 0  0.53125 0.078125 0  0.546875 0.078125 0  0.5625 0.078125 0  0.578125 0.078125 0  0.59375 0.078125 0  0.609375 0.078125 0  0.625 0.078125 0  0.640625 0.078125 0  0.65625 0.078125 0  0.671875 0.078125 0  0.6875 0.078125 0  0.703125 0.078125 0  0.71875 0.078125 0  0.734375 0.078125 0  0.75 0.078125 0  0.765625 0.078125 0  0.78125 0.078125 0  0.796875 0.078125 0  0.8125 0.078125 0  0.828125 0.078125 0  0.84375 0.078125 0  0.859375 0.078125 0  0.875 0.078125 0  0.890625 0.078125 0  0.90625 0.078125 0  0.921875 0.078125 0  0.9375 0.078125 0  0.953125 0.078125 0  0.96875 0.078125 0  0.984375 0.078125 0  1 0.078125 0  0 0.09375 0  0.015625 0.09375 0  0.03125 0.09375 0  0.046875 0.09375 0  0.0625 0.09375 0  0.078125 0.09375 0  0.09375 0.09375 0  0.109375 0.09375 0  0.125 0.09375 0  0.140625 0.09375 0  0.15625 0.09375 0  0.171875 0.09375 0  0.1875 0.09375 0  0.203125 0.09375 0  0.21875 0.09375 0  0.234375 0.09375 0  0.25 0.09375 0  0.265625 0.09375 0  0.28125 0.09375 0  0.296875 0.09375 0  0.3125 0.09375 0  0.328125 0.09375 0  0.34375 0.09375 0  0.359375 0.09375 0  0.375 0.09375 0  0.390625 0.09375 0  0.40625 0.09375 0  0.421875 0.09375 0  0.4375 0.09375 0  0.453125 0.09375 0  0.46875 0.09375 0  0.484375 0.09375 0  0.5 0.09375 0  0.515625 0.09375 0  0.53125 0.09375 0  0.546875 0.09375 0  0.5625 0.09375 0  0.578125 0.09375 0  0.59375 0.09375 0  0.609375 0.09375 0  0.625 0.09375 0  0.640625 0.09375 0  0.65625 0.09375 0  0.671875 0.09375 0  0.6875 0.09375 0  0.703125 0.09375 0  0.71875 0.09375 0  0.734375 0.09375 0  0.75 0.09375 0  0.765625 0.09375 0  0.78125 0.09375 0  0.796875 0.09375 0  0.8125 0.09375 0  0.828125 0.09375 0  0.84375 0.09375 0  0.859375 0.09375 0  0.875 0.09375 0  0.890625 0.09375 0  0.90625 0.09375 0  0.921875 0.09375 0  0.9375 0.09375 0  0.953125 0.09375 0  0.96875 0.09375 0  0.984375 0.09375 0  1 0.09375 0  0 0.109375 0  0.015625 0.109375 0  0.03125 0.109375 0  0.046875 0.109375 0  0.0625 0.109375 0  0.078125 0.109375 0  0.09375 0.109375 0  0.109375 0.109375 0  0.125 0.109375 0  0.140625 0.109375 0  0.15625 0.109375 0  0.171875 0.109375 0  0.1875 0.109375 0  0.203125 0.109375 0  0.21875 0.109375 0  0.234375 0.109375 0  0.25 0.109375 0  0.265625 0.109375 0  0.28125 0.109375 0  0.296875 0.109375 0  0.3125 0.109375 0  0.328125 0.109375 0  0.34375 0.109375 0  0.359375 0.109375 0  0.375 0.109375 0  0.390625 0.109375 0  0.40625 0.109375 0  0.421875 0.109375 0  0.4375 0.109375 0  0.453125 0.109375 0  0.46875 0.109375 0  0.484375 0.109375 0  0.5 0.109375 0  0.515625 0.109375 0  0.53125 0.109375 0  0.546875 0.109375 0  0.5625 0.109375 0  0.578125 0.109375 0  0.59375 0.109375 0  0.609375 0.109375 0  0.625 0.109375 0  0.640625 0.109375 0  0.65625 0.109375 0  0.671875 0.109375 0  0.6875 0.109375 0  0.703125 0.109375 0  0.71875 0.109375 0  0.734375 0.109375 0  0.75 0.109375 0  0.765625 0.109375 0  0.78125 0.109375 0  0.796875 0.109375 0  0.8125 0.109375 0  0.828125 0.109375 0  0.84375 0.109375 0  0.859375 0.109375 0  0.875 0.109375 0  0.890625 0.109375 0  0.90625 0.109375 0  0.921875 0.109375 0  0.9375 0.109375 0  0.953125 0.109375 0  0.96875 0.109375 0  0.984375 0.109375 0  1 0.109375 0  0 0.125 0  0.015625 0.125 0  0.03125 0.125 0  0.046875 0.125 0  0.0625 0.125 0  0.078125 0.125 0  0.09375 0.125 0  0.109375 0.125 0  0.125 0.12
[...]
<PointData  Scalars="F0_1"> 
<DataArray  type="Float64"  Name="F0_1"  format="ascii">1.3306432966763563e-15  1.2977809318997887e-15  1.3966449138916386e-15  1.2867085821944537e-15  1.2680383995868474e-15  1.0682682679480874e-15  9.6321135691988597e-16  9.5963750937465498e-16  9.3027937744917972e-16  8.3351634052936654e-16  7.1515268129009297e-16  8.7888521359364682e-16  6.9344168325312814e-16  1.2092706410764677e-15  1.2096029694119435e-15  1.1761248621457346e-15  1.2231339246258915e-15  1.1576902229422380e-15  1.0385474179914155e-15  1.0846667125163794e-15  9.5631053586535483e-16  6.7437000364443656e-16  8.9779933923595571e-16  8.6290755920099050e-16  7.4930306685731483e-16  6.1399374474205625e-16  1.3522769734847423e-15  1.3365399431897167e-15  1.3640641208079537e-15  1.1778028068999818e-15  1.1506988383339277e-15  1.1042682437501132e-15  8.7815001760390499e-16  8.4871651212028511e-16  1.0910332489629549e-15  9.4554173435922550e-16  9.6612202717010945e-16  5.7951987043315783e-16  6.1492247204527157e-16  1.5400296128177338e-15  1.2032301671297546e-15  1.2614474066735040e-15  1.2088563427473207e-15  1.3227275576887030e-15  9.6527141965023184e-16  1.0187269978020592e-15  9.1924356077018785e-16  8.3803031548621055e-16  8.2854898683945561e-16  9.4158128989408573e-16  7.8629855664143529e-16  3.3960003860002041e-16  1.5264712650210010e-15  1.3071968952084851e-15  1.3414143804381529e-15  1.1726090596852758e-15  1.0123330429337393e-15  1.0407378834850380e-15  1.0748952088871668e-15  7.6184519845466835e-16  8.5725882607929954e-16  8.4162293915356755e-16  7.5468072098631835e-16  6.5681847427029949e-16  3.8199265021262487e-16  7.8125000000002359e-02  7.8043110925912998e-02  7.7963821504970054e-02  7.7887131737172557e-02  7.7813041622520826e-02  7.7741551161014971e-02  7.7672660352654410e-02  7.7606369197439823e-02  7.7542677695370710e-02  7.7481585846447265e-02  7.7423093650669461e-02  7.7367201108037423e-02  7.7313908218551344e-02  7.7263214982212919e-02  7.7215121399016942e-02  7.7169627468967578e-02  7.7126733192063979e-02  7.7086438568305937e-02  7.7048743597693620e-02  7.7013648280227054e-02  7.6981152615905893e-02  7.6951256604730567e-02  7.6923960246700784e-02  7.6899263541816865e-02  7.6877166490078683e-02  7.6857669091486197e-02  7.6840771346041253e-02  7.6826473253738953e-02  7.6814774814583625e-02  7.6805676028573577e-02  7.6799176895709392e-02  7.6795277415990612e-02  7.6793977589417722e-02  7.6795277415990459e-02  7.6799176895708698e-02  7.6805676028572828e-02  7.6814774814582681e-02  7.6826473253738106e-02  7.6840771346039463e-02  7.6857669091487932e-02  7.6877166490079613e-02  7.6899263541817822e-02  7.6923960246701631e-02  7.6951256604731150e-02  7.6981152615906129e-02  7.7013648280226860e-02  7.7048743597693412e-02  7.7086438568305299e-02  7.7126733192062952e-02  7.7169627468966689e-02  7.7215121399015874e-02  7.7263214982210809e-02  7.7313908218553398e-02  7.7367201108038575e-02  7.7423093650670460e-02  7.7481585846447931e-02  7.7542677695371084e-02  7.7606369197439851e-02  7.7672660352654271e-02  7.7741551161014333e-02  7.7813041622520188e-02  7.7887131737171600e-02  7.7963821504969055e-02  7.8043110925911763e-02  7.8125000000000888e-02  1.5625000000000241e-01  1.5608622185182558e-01  1.5592764300993839e-01  1.5577426347434356e-01  1.5562608324504029e-01  1.5548310232202830e-01  1.5534532070530779e-01  1.5521273839487851e-01  1.5508535539074059e-01  1.5496317169289400e-01  1.5484618730133881e-01  1.5473440221607493e-01  1.5462781643710252e-01  1.5452642996442278e-01  1.5443024279803333e-01  1.5433925493793360e-01  1.5425346638412629e-01  1.5417287713661051e-01  1.5409748719538596e-01  1.5402729656045289e-01  1.5396230523181101e-01  1.5390251320946052e-01  1.5384792049340137e-01  1.5379852708363356e-01  1.5375433298015723e-01  1.5371533818297231e-01  1.5368154269207984e-01  1.5365294650747735e-01  1.5362954962916556e-01  1.5361135205714577e-01  1.5359835379141731e-01  1.5359055483198011e-01  1.5358795517883456e-01  1.5359055483198014e-01  1.5359835379141706e-01  1.5361135205714543e-01  1.5362954962916509e-01  1.5365294650747621e-01  1.5368154269207870e-01  1.5371533818297389e-01  1.5375433298015878e-01  1.5379852708363406e-01  1.5384792049340176e-01  1.5390251320946066e-01  1.5396230523181120e-01  1.5402729656045289e-01  1.5409748719538588e-01  1.5417287713661026e-01  1.5425346638412590e-01  1.5433925493793307e-01  1.5443024279803166e-01  1.5452642996442167e-01  1.5462781643710427e-01  1.5473440221607634e-01  1.5484618730133934e-01  1.5496317169289439e-01  1.5508535539074081e-01  1.5521273839487856e-01  1.5534532070530771e-01  1.5548310232202819e-01  1.5562608324504007e-01  1.5577426347434326e-01  1.5592764300993778e-01  1.5608622185182378e-01  1.5625000000000125e-01  2.3437500000000203e-01  2.3412933277773648e-01  2.3389146451490722e-01  2.3366139521151483e-01  2.3343912486755969e-01  2.3322465348304189e-01  2.3301798105796090e-01  2.3281910759231716e-01  2.3262803308611044e-01  2.3244475753934080e-01  2.3226928095200811e-01  2.3210160332411228e-01  2.3194172465565366e-01  2.3178964494663290e-01  2.3164536419704829e-01  2.3150888240690023e-01  2.3138019957618874e-01  2.3125931570491504e-01  2.3114623079307828e-01  2.3104094484067872e-01  2.3094345784771600e-01  2.3085376981419037e-01  2.3077188074010191e-01  2.3069779062545026e-01  2.3063149947023587e-01  2.3057300727445840e-01  2.3052231403811857e-01  2.3047941976121494e-01  2.3044432444374810e-01  2.3041702808571796e-01  2.3039753068712523e-01  2.3038583224796969e-01  2.3038193276825106e-01  2.3038583224796966e-01  2.3039753068712526e-01  2.3041702808571779e-01  2.3044432444374741e-01  2.3047941976121397e-01  2.3052231403811768e-01  2.3057300727445940e-01  2.3063149947023667e-01  2.3069779062545098e-01  2.3077188074010191e-01  2.3085376981419042e-01  2.3094345784771608e-01  2.3104094484067861e-01  2.3114623079307833e-01  2.3125931570491498e-01  2.3138019957618877e-01  2.3150888240689954e-01  2.3164536419704723e-01  2.3178964494663190e-01  2.3194172465565482e-01  2.3210160332411345e-01  2.3226928095200869e-01  2.3244475753934091e-01  2.3262803308611052e-01  2.3281910759231728e-01  2.3301798105796104e-01  2.3322465348304183e-01  2.3343912486755980e-01  2.3366139521151463e-01  2.3389146451490650e-01  2.3412933277773548e-01  2.3437500000000139e-01  3.1250000000000178e-01  3.1217244370364761e-01  3.1185528601987550e-01  3.1154852694868612e-01  3.1125216649007925e-01  3.1096620464405544e-01  3.1069064141061420e-01  3.1042547678975596e-01  3.1017071078148023e-01  3.0992634338578723e-01  3.0969237460267701e-01  3.0946880443214941e-01  3.0925563287420443e-01  3.0905285992884290e-01  3.0886048559606372e-01  3.0867850987586609e-01  3.0850693276825131e-01  3.0834575427321981e-01  3.0819497439077082e-01  3.0805459312090444e-01  3.0792461046362080e-01  3.0780502641891999e-01  3.0769584098680197e-01  3.0759705416726668e-01  3.0750866596031406e-01  3.0743067636594390e-01  3.0736308538415724e-01  3.0730589301495248e-01  3.0725909925832995e-01  3.0722270411429053e-01  3.0719670758283329e-01  3.0718110966395923e-01  3.0717591035766773e-01  3.0718110966395917e-01  3.0719670758283313e-01  3.0722270411428992e-01  3.0725909925832939e-01  3.0730589301495137e-01  3.0736308538415624e-01  3.0743067636594468e-01  3.0750866596031479e-01  3.0759705416726701e-01  3.0769584098680242e-01  3.0780502641892016e-01  3.0792461046362096e-01  3.0805459312090444e-01  3.0819497439077065e-01  3.0834575427321964e-01  3.0850693276825125e-01  3.0867850987586559e-01  3.0886048559606255e-01  3.0905285992884213e-01  3.0925563287420565e-01  3.0946880443215014e-01  3.0969237460267740e-01  3.0992634338578773e-01  3.1017071078148051e-01  3.1042547678975596e-01  3.1069064141061431e-01  3.1096620464405550e-01  3.1125216649007925e-01  3.1154852694868579e-01  3.1185528601987500e-01  3.1217244370364677e-01  3.1250000000000111e-01  3.9062500000000161e-01  3.9021555462955937e-01  3.8981910752484389e-01  3.8943565868585706e-01  3.8906520811259909e-01  3.8870775580506917e-01  3.8836330176326783e-01  3.8803184598719476e-01  3.8771338847685000e-01  3.8740792923223377e-01  3.8711546825334586e-01  3.8683600554018621e-01  3.8656954109275510e-01  3.8631607491105296e-01  3.8607560699507903e-01  3.8584813734483209e-01  3.8563366596031373e-01  3.8543219284152430e-01  3.8524371798846319e-01  3.8506824140113044e-01  3.8490576307952601e-01  3.8475628302364984e-01  3.8461980123350215e-01  3.8449631770908282e-01  3.8438583245039215e-01  3.8428834545742940e-01  3.8420385673019575e-01  3.8413236626869007e-01  3.8407387407291177e-01  3.8402838014286234e-01  3.8399588447854160e-01  3.8397638707994886e-01  3.8396988794708453e-01  3.8397638707994886e-01  3.8399588447854138e-01  3.8402838014286222e-01  3.8407387407291127e-01  3.8413236626868885e-01  3.8420385673019480e-01  3.8428834545743018e-01  3.8438583245039287e-01  3.8449631770908338e-01  3.8461980123350248e-01  3.8475628302365056e-01  3.8490576307952612e-01  3.8506824140113038e-01  3.8524371798846330e-01  3.8543219284152425e-01  3.8563366596031362e-01  3.8584813734483131e-01  3.8607560699507754e-01  3.8631607491105208e-01  3.8656954109275588e-01  3.8683600554018704e-01  3.8711546825334597e-01  3.8740792923223411e-01  3.8771338847685072e-01  3.8803184598719498e-01  3.8836330176326794e-01  3.8870775580506917e-01  3.8906520811259870e-01  3.8943565868585672e-01  3.8981910752484317e-01  3.9021555462955787e-01  3.9062500000000100e-01  4.6875000000000155e-01  4.6825866555547041e-01  4.6778292902981239e-01  4.6732279042302804e-01  4.6687824973511810e-01  4.6644930696608300e-01  4.6603596211592130e-01  4.6563821518463383e-01  4.6525606617222015e-01  4.6488951507868037e-01  4.6453856190401471e-01  4.6420320664822318e-01  4.6388344931130543e-01  4.6357928989326297e-01  4.6329072839409424e-01  4.6301776481379842e-01  4.6276039915237632e-01  4.6251863140982880e-01  4.6229246158615617e-01  4.6208188968135649e-01  4.6188691569543122e-01  4.6170753962837990e-01  4.6154376148020249e-01  4.6139558125089924e-01  4.6126299894047013e-01  4.6114601454891491e-01  4.6104462807623481e-01  4.6095883952242750e-01  4.6088864888749415e-01  4.6083405617143436e-01  4.6079506137424914e-01  4.6077166449593904e-01  4.6076386553650139e-01  4.6077166449593859e-01  4.6079506137424969e-01  4.6083405617143447e-01  4.6088864888749331e-01  4.6095883952242633e-01  4.6104462807623336e-01  4.6114601454891546e-01  4.6126299894047096e-01  4.6139558125089969e-01  4.6154376148020271e-01  4.6170753962838018e-01  4.6188691569543172e-01  4.6208188968135661e-01  4.6229246158615589e-01  4.6251863140982902e-01  4.6276039915237610e-01  4.6301776481379742e-01  4.6329072839409285e-01  4.6357928989326214e-01  4.6388344931130732e-01  4.6420320664822418e-01  4.6453856190401493e-01  4.6488951507868037e-01  4.6525606617222037e-01  4.6563821518463444e-01  4.6603596211592135e-01  4.6644930696608300e-01  4.6687824973511838e-01  4.6732279042302788e-01  4.6778292902981150e-01  4.6825866555546908e-01  4.6875000000000089e-01  5.4687500000000167e-01  5.4630177648138190e-01  5.4574675053478083e-01  5.4520992216019937e-01  5.4469129135763794e-01  5.4419085812709644e-01  5.4370862246857532e-01  5.4324458438207235e-01  5.4279874386759042e-01  5.4237110092512753e-01  5.4196165555468390e-01  5.4157040775626009e-01  5.4119735752985632e-01  5.4084250487547336e-01  5.4050584979310956e-01  5.4018739228276469e-01  5.3988713234443919e-01  5.3960506997813318e-01  5.3934120518384832e-01  5.3909553796158327e-01  5.3886806831133616e-01  5.3865879623310997e-01  5.3846772172690305e-01  5.3829484479271561e-01  5.3814016543054799e-01  5.3800368364040052e-01  5.3788539942227298e-01  5.3778531277616504e-01  5.3770342370207647e-01  5.3763973220000683e-01  5.3759423826995723e-01  5.3756694191192811e-01  5.3755784312591870e-01  5.3756694191192811e-01  5.3759423826995800e-01  5.3763973220000716e-01  5.3770342370207558e-01  5.3778531277616382e-01  5.3788539942227220e-01  5.3800368364040119e-01  5.3814016543054910e-01  5.3829484479271617e-01  5.3846772172690283e-01  5.3865879623310942e-01  5.3886806831133649e-01  5.3909553796158338e-01  5.3934120518384843e-01  5.3960506997813396e-01  5.3988713234443897e-01  5.4018739228276358e-01  5.4050584979310812e-01  5.4084250487547236e-01  5.4119735752985776e-01  5.4157040775626142e-01  5.4196165555468423e-01  5.4237110092512686e-01  5.4279874386758975e-01  5.4324458438207301e-01  5.4370862246857510e-01  5.4419085812709667e-01  5.4469129135763805e-01  5.4520992216019937e-01  5.4574675053477983e-01  5.4630177648138056e-01  5.4687500000000078e-01  6.2500000000000167e-01  6.2434488740729321e-01  6.2371057203974956e-01  6.2309705389737080e-01  6.2250433298015750e-01  6.2193240928810978e-01  6.2138128282122829e-01  6.2085095357951259e-01  6.2034142156296024e-01  6.1985268677157446e-01  6.1938474920535336e-01  6.1893760886429749e-01  6.1851126574840731e-01  6.1810571985768381e-01  6.1772097119212466e-01  6.1735701975173063e-01  6.1701386553650184e-01  6.1669150854643806e-01  6.1638994878154063e-01  6.1610918624180899e-01  6.1584922092724259e-01  6.1561005283783965e-01  6.1539168197360383e-01  6.1519410833453247e-01  6.1501733192062658e-01  6.1486135273188602e-01  6.1472617076831215e-01  6.1461178602990263e-01  6.1451819851665868e-01  6.1444540822857940e-01  6.1439341516566537e-01  6.1436221932791735e-01  6.1435182071533556e-01  6.1436221932791846e-01  6.1439341516566615e-01  6.1444540822857985e-01  6.1451819851665801e-01  6.1461178602990163e-01  6.1472617076831104e-01  6.1486135273188625e-01  6.1501733192062746e-01  6.1519410833453270e-01  6.1539168197360317e-01  6.1561005283783932e-01  6.1584922092724104e-01  6.1610918624180910e-01  6.1638994878154163e-01  6.1669150854643884e-01  6.1701386553650206e-01  6.1735701975172996e-01  6.1772097119212344e-01  6.1810571985768270e-01  6.1851126574840809e-01  6.1893760886429849e-01  6.1938474920535347e-01  6.1985268677157368e-01  6.2034142156295968e-01  6.2085095357951126e-01  6.2138128282122906e-01  6.2193240928811111e-01  6.2250433298015850e-01  6.2309705389737102e-01  6.2371057203974889e-01  6.2434488740729199e-01  6.2500000000000100e-01  7.0312500000000155e-01  7.0238799833320398e-01  7.0167439354471761e-01  7.0098418563454234e-01  7.0031737460267729e-01  6.9967396044912356e-01  6.9905394317388136e-01  6.9845732277695050e-01  6.9788409925833084e-01  6.9733427261802039e-01  6.9680784285602249e-01  6.9630480997233479e-01  6.9582517396695809e-01  6.9536893483989393e-01  6.9493609259113964e-01  6.9452664722069668e-01  6.9414059872856448e-01  6.9377794711474317e-01  6.9343869237923283e-01  6.9312283452203438e-01  6.9283037354314692e-01  6.9256130944257044e-01  6.9231564222030384e-01  6.9209337187634912e-01  6.9189449841070516e-01  6.9171902182337175e-01  6.9156694211435077e-01  6.9143825928363967e-01  6.9133297333124077e-01  6.9125108425715176e-01  6.9119259206137373e-01  6.9115749674390703e-01  6.9114579830475176e-01  6.9115749674390781e-01  6.9119259206137507e-01  6.9125108425715198e-01  6.9133297333124011e-01  6.9143825928363911e-01  6.9156694211434988e-01  6.9171902182337186e-01  6.9189449841070472e-01  6.9209337187634912e-01  6.9231564222030373e-01  6.9256130944256922e-01  6.9283037354314603e-01  6.9312283452203416e-01  6.9343869237923406e-01  6.9377794711474428e-01  6.9414059872856448e-01  6.9452664722069624e-01  6.9493609259113898e-01  6.9536893483989304e-01  6.9582517396695898e-01  6.9630480997233524e-01  6.9680784285602271e-01  6.9733427261802083e-01  6.9788409925832939e-01  6.9845732277694994e-01  6.9905394317388203e-01  6.9967396044912444e-01  7.0031737460267829e-01  7.0098418563454223e-01  7.0167439354471739e-01  7.0238799833320331e-01  7.0312500000000111e-01  7.8125000000000100e-01  7.8043110925911485e-01  7.7963821504968567e-01  7.7887131737171322e-01  7.7813041622519719e-01  7.7741551161013733e-01  7.7672660352653444e-01  7.7606369197438863e-01  7.7542677695369999e-01  7.7481585846446765e-01  7.7423093650669117e-01  7.7367201108037209e-01  7.7313908218550920e-01  7.7263214982210404e-01  7.7215121399015418e-01  7.7169627468966273e-01  7.7126733192062713e-01  7.7086438568304816e-01  7.7048743597692559e-01  7.7013648280225966e-01  7.6981152615905124e-01  7.6951256604729978e-01  7.6923960246700473e-01  7.6899263541816520e-01  7.6877166490078319e-01  7.6857669091485747e-01  7.6840771346038961e-01  7.6826473253737704e-01  7.6814774814582221e-01  7.6805676028572378e-01  7.6799176895708221e-01  7.6795277415989660e-01  7.6793977589416840e-01  7.6795277415989682e-01  7.6799176895708243e-01  7.6805676028572478e-01  7.6814774814582187e-01  7.6826473253737659e-01  7.6840771346038861e-01  7.6857669091485703e-01  7.6877166490078230e-01  7.6899263541816520e-01  7.6923960246700407e-01  7.6951256604729945e-01  7.6981152615905102e-01  7.7013648280225966e-01  7.7048743597692571e-01  7.7086438568304838e-01  7.7126733192062757e-01  7.7169627468966218e-01  7.7215121399015429e-01  7.7263214982210304e-01  7.7313908218550909e-01  7.7367201108037209e-01  7.7423093650669139e-01  7.7481585846446710e-01  7.7542677695369944e-01  7.7606369197438863e-01  7.7672660352653444e-01  7.7741551161013744e-01  7.7813041622519752e-01  7.7887131737171311e-01  7.7963821504968567e-01  7.8043110925911496e-01  7.8125000000000089e-01  8.5937500000000144e-01  8.5847422018502495e-01  8.5760203655465395e-01  8.5675844910888388e-01  8.5594345784771642e-01  8.5515706277115089e-01  8.5439926387918774e-01  8.5367006117182687e-01  8.5296945464906881e-01  8.5229744431091325e-01  8.5165403015736030e-01  8.5103921218840828e-01  8.5045299040405975e-01  8.4989536480431405e-01  8.4936633538916895e-01  8.4886590215862789e-01  8.4839406511268922e-01  8.4795082425135282e-01  8.4753617957461791e-01  8.4715013108248538e-01  8.4679267877495579e-01  8.4646382265202835e-01  8.4616356271370397e-01  8.4589189895998174e-01  8.4564883139086100e-01  8.4543436000634253e-01  8.4524848480642745e-01  8.4509120579111419e-01  8.4496252296040408e-01  8.4486243631429592e-01  8.4479094585278980e-01  8.4474805157588617e-01  8.4473375348358459e-01  8.4474805157588628e-01  8.4479094585278980e-01  8.4486243631429625e-01  8.4496252296040419e-01  8.4509120579111396e-01  8.4524848480642678e-01  8.4543436000634209e-01  8.4564883139086033e-01  8.4589189895998129e-01  8.4616356271370430e-01  8.4646382265202935e-01  8.4679267877495612e-01  8.4715013108248538e-01  8.4753617957461769e-01  8.4795082425135215e-01  8.4839406511268967e-01  8.4886590215862878e-01  8.4936633538916917e-01  8.4989536480431327e-01  8.5045299040405886e-01  8.5103921218840861e-01  8.5165403015735985e-01  8.5229744431091337e-01  8.5296945464906915e-01  8.5367006117182731e-01  8.5439926387918752e-01  8.5515706277115067e-01  8.5594345784771608e-01  8.5675844910888410e-01  8.5760203655465417e-01  8.5847422018502595e-01  8.5937500000000111e-01  9.3750000000000100e-01  9.3651733111093682e-01  9.3556585805962178e-01  9.3464558084605520e-01  9.3375649947023576e-01  9.3289861393216444e-01  9.3207192423184093e-01  9.3127643036926555e-01  9.3051213234443864e-01  9.2977903015735963e-01  9.2907712380802843e-01  9.2840641329644535e-01  9.2776689862261086e-01  9.2715857978652338e-01  9.2658145678818460e-01  9.2603552962759395e-01  9.2552079830475198e-01  9.2503726281965715e-01  9.2458492317231034e-01  9.2416377936271132e-01  9.2377383139086067e-01  9.2341507925675803e-01  9.2308752296040320e-01  9.2279116250179694e-01  9.2252599788093947e-01  9.2229202909782881e-01  9.2208925615246506e-01  9.2191767904485167e-01  9.2177729777498585e-01  9.2166811234286783e-01  9.2159012274849750e-01  9.2154332899187552e-01  9.2152773107300123e-01  9.2154332899187519e-01  9.2159012274849750e-01  9.2166811234286772e-01  9.2177729777498563e-01  9.2191767904485167e-01  9.2208925615246562e-01  9.2229202909782715e-01  9.2252599788093825e-01  9.2279116250179727e-01  9.2308752296040464e-01  9.2341507925675914e-01  9.2377383139086111e-01  9.2416377936271099e-01  9.2458492317231000e-01  9.2503726281965615e-01  9.2552079830475142e-01  9.2603552962759350e