<?xml version="1.0"?>
<VTKFile type="UnstructuredGrid"  version="0.1"  >
<UnstructuredGrid>
<Piece  NumberOfPoints="4225" NumberOfCells="8192">
<Points>
<DataArray  type="Float64"  NumberOfComponents="3"  format="ascii">0 0 0  0.015625 0 0  0.03125 0 0  0.046875 0 0  0.0625 0 0  0.078125 0 0  0.09375 0 0  0.109375 0 0  0.125 0 0  0.140625 0 0  0.15625 0 0  0.171875 0 0  0.1875 0 0  0.203125 0 0  0.21875 0 0  0.234375 0 0  0.25 0 0  0.265625 0 0  0.28125 0 0  0.296875 0 0  0.3125 0 0  0.328125 0 0  0.34375 0 0  0.359375 0 0  0.375 0 0  0.390625 0 0  0.40625 0 0  0.421875 0 0  0.4375 0 0  0.453125 0 0  0.46875 0 0  0.484375 0 0  0.5 0 0  0.515625 0 0  0.53125 0 0  0.546875 0 0  0.5625 0 0  0.578125 0 0  0.59375 0 0  0.609375 0 0  0.625 0 0  0.640625 0 0  0.65625 0 0  0.671875 0 0  0.6875 0 0  0.703125 0 0  0.71875 0 0  0.734375 0 0  0.75 0 0  0.765625 0 0  0.78125 0 0  0.796875 0 0  0.8125 0 0  0.828125 0 0  0.84375 0 0  0.859375 0 0  0.875 0 0  0.890625 0 0  0.90625 0 0  0.921875 0 0  0.9375 0 0  0.953125 0 0  0.96875 0 0  0.984375 0 0  1 0 0  0 0.015625 0  0.015625 0.015625 0  0.03125 0.015625 0  0.046875 0.015625 0  0.0625 0.015625 0  0.078125 0.015625 0  0.09375 0.015625 0  0.109375 0.015625 0  0.125 0.015625 0  0.140625 0.015625 0  0.15625 0.015625 0  0.171875 0.015625 0  0.1875 0.015625 0  0.203125 0.015625 0  0.21875 0.015625 0  0.234375 0.015625 0  0.25 0.015625 0  0.265625 0.015625 0  0.28125 0.015625 0  0.296875 0.015625 0  0.3125 0.015625 0  0.328125 0.015625 0  0.34375 0.015625 0  0.359375 0.015625 0  0.375 0.015625 0  0.390625 0.015625 0  0.40625 0.015625 0  0.421875 0.015625 0  0.4375 0.015625 0  0.453125 0.015625 0  0.46875 0.015625 0  0.484375 0.015625 0  0.5 0.015625 0  0.515625 0.015625 0  0.53125 0.015625 0  0.546875 0.015625 0  0.5625 0.015625 0  0.578125 0.015625 0  0.59375 0.015625 0  0.609375 0.015625 0  0.625 0.015625 0  0.640625 0.015625 0  0.65625 0.015625 0  0.671875 0.015625 0  0.6875 0.015625 0  0.703125 0.015625 0  0.71875 0.015625 0  0.734375 0.015625 0  0.75 0.015625 0  0.765625 0.015625 0  0.78125 0.015625 0  0.796875 0.015625 0  0.8125 0.015625 0  0.828125 0.015625 0  0.84375 0.015625 0  0.859375 0.015625 0  0.875 0.015625 0  0.890625 0.015625 0  0.90625 0.015625 0  0.921875 0.015625 0  0.9375 0.015625 0  0.953125 0.015625 0  0.96875 0.015625 0  0.984375 0.015625 0  1 0.015625 0  0 0.03125 0  0.015625 0.03125 0  0.03125 0.03125 0  0.046875 0.03125 0  0.0625 0.03125 0  0.078125 0.03125 0  0.09375 0.03125 0  0.109375 0.03125 0  0.125 0.03125 0  0.140625 0.03125 0  0.15625 0.03125 0  0.171875 0.03125 0  0.1875 0.03125 0  0.203125 0.03125 0  0.21875 0.03125 0  0.234375 0.03125 0  0.25 0.03125 0  0.265625 0.03125 0  0.28125 0.03125 0  0.296875 0.03125 0  0.3125 0.03125 0  0.328125 0.03125 0  0.34375 0.03125 0  0.359375 0.03125 0  0.375 0.03125 0  0.390625 0.03125 0  0.40625 0.03125 0  0.421875 0.03125 0  0.4375 0.03125 0  0.453125 0.03125 0  0.46875 0.03125 0  0.484375 0.03125 0  0.5 0.03125 0  0.515625 0.03125 0  0.53125 0.03125 0  0.546875 0.03125 0  0.5625 0.03125 0  0.578125 0.03125 0  0.59375 0.03125 0  0.609375 0.03125 0  0.625 0.03125 0  0.640625 0.03125 0  0.65625 0.03125 0  0.671875 0.03125 0  0.6875 0.03125 0  0.703125 0.03125 0  0.71875 0.03125 0  0.734375 0.03125 0  0.75 0.03125 0  0.765625 0.03125 0  0.78125 0.03125 0  0.796875 0.03125 0  0.8125 0.03125 0  0.828125 0.03125 0  0.84375 0.03125 0  0.859375 0.03125 0  0.875 0.03125 0  0.890625 0.03125 0  0.90625 0.03125 0  0.921875 0.03125 0  0.9375 0.03125 0  0.953125 0.03125 0  0.96875 0.03125 0  0.984375 0.03125 0  1 0.03125 0  0 0.046875 0  0.015625 0.046875 0  0.03125 0.046875 0  0.046875 0.046875 0  0.0625 0.046875 0  0.078125 0.046875 0  0.09375 0.046875 0  0.109375 0.046875 0  0.125 0.046875 0  0.140625 0.046875 0  0.15625 0.046875 0  0.171875 0.046875 0  0.1875 0.046875 0  0.203125 0.046875 0  0.21875 0.046875 0  0.234375 0.046875 0  0.25 0.046875 0  0.265625 0.046875 0  0.28125 0.046875 0  0.296875 0.046875 0  0.3125 0.046875 0  0.328125 0.046875 0  0.34375 0.046875 0  0.359375 0.046875 0  0.375 0.046875 0  0.390625 0.046875 0  0.40625 0.046875 0  0.421875 0.046875 0  0.4375 0.046875 0  0.453125 0.046875 0  0.46875 0.046875 0  0.484375 0.046875 0  0.5 0.046875 0  0.515625 0.046875 0  0.53125 0.046875 0  0.546875 0.046875 0  0.5625 0.046875 0  0.578125 0.046875 0  0.59375 0.046875 0  0.609375 0.046875 0  0.625 0.046875 0  0.640625 0.046875 0  0.65625 0.046875 0  0.671875 0.046875 0  0.6875 0.046875 0  0.703125 0.046875 0  0.71875 0.046875 0  0.734375 0.046875 0  0.75 0.046875 0  0.765625 0.046875 0  0.78125 0.046875 0  0.796875 0.046875 0  0.8125 0.046875 0  0.828125 0.046875 0  0.84375 0.046875 0  0.859375 0.046875 0  0.875 0.046875 0  0.890625 0.046875 0  0.90625 0.046875 0  0.921875 0.046875 0  0.9375 0.046875 0  0.953125 0.046875 0  0.96875 0.046875 0  0.984375 0.046875 0  1 0.046875 0  0 0.0625 0  0.015625 0.0625 0  0.03125 0.0625 0  0.046875 0.0625 0  0.0625 0.0625 0  0.078125 0.0625 0  0.09375 0.0625 0  0.109375 0.0625 0  0.125 0.0625 0  0.140625 0.0625 0  0.15625 0.0625 0  0.171875 0.0625 0  0.1875 0.0625 0  0.203125 0.0625 0  0.21875 0.0625 0  0.234375 0.0625 0  0.25 0.0625 0  0.265625 0.0625 0  0.28125 0.0625 0  0.296875 0.0625 0  0.3125 0.0625 0  0.328125 0.0625 0  0.34375 0.0625 0  0.359375 0.0625 0  0.375 0.0625 0  0.390625 0.0625 0  0.40625 0.0625 0  0.421875 0.0625 0  0.4375 0.0625 0  0.453125 0.0625 0  0.46875 0.0625 0  0.484375 0.0625 0  0.5 0.0625 0  0.515625 0.0625 0  0.53125 0.0625 0  0.546875 0.0625 0  0.5625 0.0625 0  0.578125 0.0625 0  0.59375 0.0625 0  0.609375 0.0625 0  0.625 0.0625 0  0.640625 0.0625 0  0.65625 0.0625 0  0.671875 0.0625 0  0.6875 0.0625 0  0.703125 0.0625 0  0.71875 0.0625 0  0.734375 0.0625 0  0.75 0.0625 0  0.765625 0.0625 0  0.78125 0.0625 0  0.796875 0.0625 0  0.8125 0.0625 0  0.828125 0.0625 0  0.84375 0.0625 0  0.859375 0.0625 0  0.875 0.0625 0  0.890625 0.0625 0  0.90625 0.0625 0  0.921875 0.0625 0  0.9375 0.0625 0  0.953125 0.0625 0  0.96875 0.0625 0  0.984375 0.0625 0  1 0.0625 0  0 0.078125 0  0.015625 0.078125 0  0.03125 0.078125 0  0.046875 0.078125 0  0.0625 0.078125 0  0.078125 0.078125 0  0.09375 0.078125 0  0.109375 0.078125 0  0.125 0.078125 0  0.140625 0.078125 0  0.15625 0.078125 0  0.171875 0.078125 0  0.1875 0.078125 0  0.203125 0.078125 0  0.21875 0.078125 0  0.234375 0.078125 0  0.25 0.078125 0  0.265625 0.078125 0  0.28125 0.078125 0  0.296875 0.078125 0  0.3125 0.078125 0  0.328125 0.078125 0  0.34375 0.078125 0  0.359375 0.078125 0  0.375 0.078125 0  0.390625 0.078125 0  0.40625 0.078125 0  0.421875 0.078125 0  0.4375 0.078125 0  0.453125 0.078125 0  0.46875 0.078125 0  0.484375 0.078125 0  0.5 0.078125 0  0.515625 0.078125 0  0.53125 0.078125 0  0.546875 0.078125 0  0.5625 0.078125 0  0.578125 0.078125 0  0.59375 0.078125 0  0.609375 0.078125 0  0.625 0.078125 0  0.640625 0.078125 0  0.65625 0.078125 0  0.671875 0.078125 0  0.6875 0.078125 0  0.703125 0.078125 0  0.71875 0.078125 0  0.734375 0.078125 0  0.75 0.078125 0  0.765625 0.078125 0  0.78125 0.078125 0  0.796875 0.078125 0  0.8125 0.078125 0  0.828125 0.078125 0  0.84375 0.078125 0  0.859375 0.078125 0  0.875 0.078125 0  0.890625 0.078125 0  0.90625 0.078125 0  0.921875 0.078125 0  0.9375 0.078125 0  0.953125 0.078125 0  0.96875 0.078125 0  0.984375 0.078125 0  1 0.078125 0  0 0.09375 0  0.015625 0.09375 0  0.03125 0.09375 0  0.046875 0.09375 0  0.0625 0.09375 0  0.078125 0.09375 0  0.09375 0.09375 0  0.109375 0.09375 0  0.125 0.09375 0  0.140625 0.09375 0  0.15625 0.09375 0  0.171875 0.09375 0  0.1875 0.09375 0  0.203125 0.09375 0  0.21875 0.09375 0  0.234375 0.09375 0  0.25 0.09375 0  0.265625 0.09375 0  0.28125 0.09375 0  0.296875 0.09375 0  0.3125 0.09375 0  0.328125 0.09375 0  0.34375 0.09375 0  0.359375 0.09375 0  0.375 0.09375 0  0.390625 0.09375 0  0.40625 0.09375 0  0.421875 0.09375 0  0.4375 0.09375 0  0.453125 0.09375 0  0.46875 0.09375 0  0.484375 0.09375 0  0.5 0.09375 0  0.515625 0.09375 0  0.53125 0.09375 0  0.546875 0.09375 0  0.5625 0.09375 0  0.578125 0.09375 0  0.59375 0.09375 0  0.609375 0.09375 0  0.625 0.09375 0  0.640625 0.09375 0  0.65625 0.09375 0  0.671875 0.09375 0  0.6875 0.09375 0  0.703125 0.09375 0  0.71875 0.09375 0  0.734375 0.09375 0  0.75 0.09375 0  0.765625 0.09375 0  0.78125 0.09375 0  0.796875 0.09375 0  0.8125 0.09375 0  0.828125 0.09375 0  0.84375 0.09375 0  0.859375 0.09375 0  0.875 0.09375 0  0.890625 0.09375 0  0.90625 0.09375 0  0.921875 0.09375 0  0.9375 0.09375 0  0.953125 0.09375 0  0.96875 0.09375 0  0.984375 0.09375 0  1 0.09375 0  0 0.109375 0  0.015625 0.109375 0  0.03125 0.109375 0  0.046875 0.109375 0  0.0625 0.109375 0  0.078125 0.109375 0  0.09375 0.109375 0  0.109375 0.109375 0  0.125 0.109375 0  0.140625 0.109375 0  0.15625 0.109375 0  0.171875 0.109375 0  0.1875 0.109375 0  0.203125 0.109375 0  0.21875 0.109375 0  0.234375 0.109375 0  0.25 0.109375 0  0.265625 0.109375 0  0.28125 0.109375 0  0.296875 0.109375 0  0.3125 0.109375 0  0.328125 0.109375 0  0.34375 0.109375 0  0.359375 0.109375 0  0.375 0.109375 0  0.390625 0.109375 0  0.40625 0.109375 0  0.421875 0.109375 0  0.4375 0.109375 0  0.453125 0.109375 0  0.46875 0.109375 0  0.484375 0.109375 0  0.5 0.109375 0  0.515625 0.109375 0  0.53125 0.109375 0  0.546875 0.109375 0  0.5625 0.109375 0  0.578125 0.109375 0  0.59375 0.109375 0  0.609375 0.109375 0  0.625 0.109375 0  0.640625 0.109375 0  0.65625 0.109375 0  0.671875 0.109375 0  0.6875 0.109375 0  0.703125 0.109375 0  0.71875 0.109375 0  0.734375 0.109375 0  0.75 0.109375 0  0.765625 0.109375 0  0.78125 0.109375 0  0.796875 0.109375 0  0.8125 0.109375 0  0.828125 0.109375 0  0.84375 0.109375 0  0.859375 0.109375 0  0.875 0.109375 0  0.890625 0.109375 0  0.90625 0.109375 0  0.921875 0.109375 0  0.9375 0.109375 0  0.953125 0.109375 0  0.96875 0.109375 0  0.984375 0.109375 0  1 0.109375 0  0 0.125 0  0.015625 0.125 0  0.03125 0.125 0  0.046875 0.125 0  0.0625 0.125 0  0.078125 0.125 0  0.09375 0.125 0  0.109375 0.125 0  0.125 0.12
[...]
<PointData  Scalars="F0_2"> 
<DataArray  type="Float64"  Name="F0_2"  format="ascii">8.7326206473575585e+00  8.7427400438403353e+00  8.7534319379712233e+00  8.7646957723622982e+00  8.7765310280725011e+00  8.7889372246076078e+00  8.8019139199202279e+00  8.8154607104098286e+00  8.8295772309226894e+00  8.8442631547519390e+00  8.8595181936375589e+00  8.8753420977663673e+00  8.8917346557720158e+00  8.9086956947350426e+00  8.9262250801827445e+00  8.9443227160892800e+00  8.9629885448756887e+00  8.9822225474098456e+00  9.0020247430064373e+00  9.0223951894270211e+00  9.0433339828799468e+00  9.0648412580204472e+00  9.0869171879505988e+00  9.1095619842192814e+00  9.1327758968222579e+00  9.1565592142021011e+00  9.1809122632482651e+00  9.2058354092969630e+00  9.2313290561313224e+00  9.2573936459812796e+00  9.2840296595236449e+00  9.3112376158820371e+00  9.3390180726269119e+00  9.3673716257755899e+00  9.3962989097922183e+00  9.4258005975877612e+00  9.4558774005200732e+00  9.4865300683938099e+00  9.5177593894605046e+00  9.5492862559998777e+00  9.5817887548536405e+00  9.6150311878785804e+00  9.6485437859720999e+00  9.6820219633008211e+00  9.7152857443913412e+00  9.7482441549396448e+00  9.7808645763389066e+00  9.8131470639258325e+00  9.8451036289454539e+00  9.8767424842344447e+00  9.9080572536228857e+00  9.9390211450545483e+00  9.9696487537005076e+00  9.9999471894843825e+00  1.0029907947642814e+01  1.0059529490756912e+01  1.0088810316646383e+01  1.0117748958369523e+01  1.0146343984223225e+01  1.0174593997742944e+01  1.0202497637702777e+01  1.0230053578115385e+01  1.0257260528232013e+01  1.0284117232542535e+01  1.0310622470775410e+01  8.7732353176625555e+00  8.7833125777753818e+00  8.7939636723287418e+00  8.8051880440189425e+00  8.8169851739863461e+00  8.8293545818154211e+00  8.8422958255346771e+00  8.8558085016167496e+00  8.8698922449783328e+00  8.8845467289801938e+00  8.8997716654271830e+00  8.9155668045682361e+00  8.9319319350963848e+00  8.9488668841487389e+00  8.9663715173063956e+00  8.9844457385946637e+00  9.0030894904828642e+00  9.0223027538844018e+00  9.0420855481567806e+00  9.0624379311015666e+00  9.0833599989644043e+00  9.1048518864350356e+00  9.1269137666472648e+00  9.1495458511789920e+00  9.1727483900521811e+00  9.1965216717328762e+00  9.2208660231312418e+00  9.2457818096014233e+00  9.2712694349417610e+00  9.2973293413945886e+00  9.3239620096463973e+00  9.3511679588276770e+00  9.3789477465130613e+00  9.4073019687212316e+00  9.4362312599149405e+00  9.4657362930010560e+00  9.4958177793304941e+00  9.5264764686982701e+00  9.5577131493434795e+00  9.5892487135306403e+00  9.6217612480835708e+00  9.6550150548382909e+00  9.6885403646687891e+00  9.7220325917154202e+00  9.7553117604758111e+00  9.7882868966141938e+00  9.8209253814892410e+00  9.8532272704003763e+00  9.8852045745526063e+00  9.9168655067398213e+00  9.9482036907465421e+00  9.9791923344682374e+00  1.0009846033024886e+01  1.0040171896286260e+01  1.0070161419432450e+01  1.0099813064985183e+01  1.0129125330702047e+01  1.0158096749576456e+01  1.0186725889837660e+01  1.0215011354950741e+01  1.0242951783616611e+01  1.0270545849772017e+01  1.0297792262589537e+01  1.0324689766477578e+01  1.0351237141080416e+01  8.8130188755693375e+00  8.8230557407101209e+00  8.8336677200611913e+00  8.8448542565714341e+00  8.8566148316255955e+00  8.8689489650441491e+00  8.8818562150833991e+00  8.8953361784354410e+00  8.9093884902281673e+00  8.9240128240252723e+00  8.9392088918262420e+00  8.9549764440663644e+00  8.9713152696167224e+00  8.9882251957842225e+00  9.0057060883115092e+00  9.0237578513770433e+00  9.0423804275951394e+00  9.0615737980158517e+00  9.0813379821250511e+00  9.1016730378443942e+00  9.1225790615313525e+00  9.1440561879791833e+00  9.1661045904169409e+00  9.1887244805094870e+00  9.2119161083574763e+00  9.2356797624973463e+00  9.2600157699013721e+00  9.2849244959775650e+00  9.3104063445697705e+00  9.3364617579576450e+00  9.3630912168566169e+00  9.3902952404179256e+00  9.4180743862286125e+00  9.4464292503114855e+00  9.4753604671251814e+00  9.5048687095641178e+00  9.5349546889585195e+00  9.5656191550744190e+00  9.5968628961136204e+00  9.6284068042951141e+00  9.6609289663888589e+00  9.6941936841687806e+00  9.7277311884384527e+00  9.7612368932595484e+00  9.7945308230427486e+00  9.8275220033570232e+00  9.8601778154575097e+00  9.8924983145318297e+00  9.9244955116649010e+00  9.9561776195222169e+00  9.9875382617516522e+00  1.0018550646103741e+01  1.0049229367545221e+01  1.0079581535784376e+01  1.0109598645831491e+01  1.0139279160030247e+01  1.0168621575951871e+01  1.0197624426395141e+01  1.0226286279386386e+01  1.0254605738179482e+01  1.0282581441255873e+01  1.0310212062324528e+01  1.0337496310321988e+01  1.0364432929412331e+01  1.0391020698987207e+01  8.8519713210779081e+00  8.8619695326445527e+00  8.8725440811685434e+00  8.8836944100198103e+00  8.8954200009902582e+00  8.9077203742938202e+00  8.9205950885663974e+00  8.9340437408658815e+00  8.9480659666721785e+00  8.9626614398871638e+00  8.9778298728347199e+00  8.9935710162607165e+00  9.0098846593330286e+00  9.0267706296415167e+00  9.0442287931980356e+00  9.0622590544364314e+00  9.0808613562125355e+00  9.1000356798041935e+00  9.1197820449112417e+00  9.1401005096555039e+00  9.1609911705807736e+00  9.1824541626528742e+00  9.2044896592596039e+00  9.2270978722107628e+00  9.2502790517381417e+00  9.2740334864955187e+00  9.2983615035586720e+00  9.3232634684253739e+00  9.3487397850153720e+00  9.3747908956704471e+00  9.4014172811543393e+00  9.4286194606528007e+00  9.4563979917735548e+00  9.4847534705463499e+00  9.5136865314229038e+00  9.5431978472769252e+00  9.5732881294041317e+00  9.6039581275222297e+00  9.6352086297709256e+00  9.6667605282932669e+00  9.6992919097695172e+00  9.7325670758700458e+00  9.7661162572811033e+00  9.7996348679332375e+00  9.8329429320921662e+00  9.8659494751681223e+00  9.8986218782437092e+00  9.9309601963201821e+00  9.9629764402823007e+00  9.9946788225816050e+00  1.0026060966638202e+01  1.0057096079961036e+01  1.0087798757261510e+01  1.0118176107978718e+01  1.0148219626839957e+01  1.0177927775892130e+01  1.0207299052395875e+01  1.0236331988825579e+01  1.0265025152869383e+01  1.0293377147429162e+01  1.0321386610620541e+01  1.0349052215772897e+01  1.0376372671429348e+01  1.0403346721346775e+01  1.0429973144495786e+01  8.8900926541882761e+00  8.9000539535786860e+00  8.9105927556508284e+00  8.9217085043640392e+00  8.9334006820803520e+00  8.9456688095644417e+00  8.9585124459836809e+00  8.9719311889080942e+00  8.9859246743103665e+00  9.0004925765658648e+00  9.0156346084526078e+00  9.0313505211512926e+00  9.0476401042452856e+00  9.0645031857206249e+00  9.0819396319660157e+00  9.0999493477728102e+00  9.1185322763350509e+00  9.1376883992494555e+00  9.1574177365153808e+00  9.1777203465348851e+00  9.1985963261126749e+00  9.2200458104561154e+00  9.2420689731752592e+00  9.2646660262828142e+00  9.2878372201941701e+00  9.3115828437273649e+00  9.3359032241031397e+00  9.3607987269448518e+00  9.3862697562785584e+00  9.4123167545329984e+00  9.4389402025395537e+00  9.4661406195322826e+00  9.4939185631479095e+00  9.5222746294258336e+00  9.5512094528081146e+00  9.5807237061394765e+00  9.6108181006673234e+00  9.6414933860417129e+00  9.6727503503153880e+00  9.7043098855251202e+00  9.7368500782255456e+00  9.7701352299420989e+00  9.8036955711967586e+00  9.8372265157364804e+00  9.8705480876240674e+00  9.9035693120475106e+00  9.9362575698478430e+00  9.9686129157654335e+00  1.0000647360404818e+01  1.0032369115917984e+01  1.0063771805406173e+01  1.0094828636040148e+01  1.0125554202173763e+01  1.0155955612869286e+01  1.0186024362457845e+01  1.0215758912570832e+01  1.0245157760034074e+01  1.0274219436867792e+01  1.0302942510286673e+01  1.0331325582699780e+01  1.0359367291710624e+01  1.0387066310117124e+01  1.0414421345911633e+01  1.0441431142280905e+01  1.0468094477606147e+01  8.9273828749004398e+00  8.9373090035125315e+00  8.9478137435080285e+00  8.9588965396041331e+00  8.9705568748958520e+00  8.9827942708560187e+00  8.9956082873352621e+00  9.0089985225620772e+00  9.0229646131427383e+00  9.0375062340613734e+00  9.0526230986799057e+00  9.0683149587380889e+00  9.0845816043535024e+00  9.1014228640215435e+00  9.1188386046154228e+00  9.1368287313861813e+00  9.1553931879626802e+00  9.1745319563516077e+00  9.1942450569374596e+00  9.2145325484825591e+00  9.2353945281270562e+00  9.2568311313889104e+00  9.2788425321639032e+00  9.3014289427256447e+00  9.3245906137255670e+00  9.3483278341929115e+00  9.3726409315347645e+00  9.3975302715360041e+00  9.4229962583593316e+00  9.4490393345452972e+00  9.4756599810122566e+00  9.5028587170563910e+00  9.5306361003516677e+00  9.5589927269499366e+00  9.5879292312808211e+00  9.6174462861517789e+00  9.6475446027480931e+00  9.6782249306328687e+00  9.7094880577470235e+00  9.7410548759906685e+00  9.7736034717569478e+00  9.8068981463849312e+00  9.8404691301854079e+00  9.8740118366692808e+00  9.9073462896384559e+00  9.9403815139951881e+00  9.9730848902699218e+00  1.0005456472867586e+01  1.0037508272032444e+01  1.0069248499531351e+01  1.0100670778055578e+01  1.0131748314341062e+01  1.0162495702281976e+01  1.0192920050456092e+01  1.0223012852685144e+01  1.0252772570066350e+01  1.0282197698866453e+01  1.0311286770521779e+01  1.0340038351638253e+01  1.0368451043991344e+01  1.0396523484526123e+01  1.0424254345357214e+01  1.0451642333768826e+01  1.0478686192214736e+01  1.0505384698318307e+01  8.9638419832143956e+00  8.9737346824460591e+00  8.9842070447401561e+00  8.9952585157400975e+00  9.0068885794367688e+00  9.0190967581685193e+00  9.0318826126211356e+00  9.0452457418278289e+00  9.0591857831693066e+00  9.0737024123737058e+00  9.0887953435166242e+00  9.1044643290211162e+00  9.1207091596576770e+00  9.1375296645442656e+00  9.1549257111462694e+00  9.1728972052765592e+00  9.1914440910954340e+00  9.2105663511106641e+00  9.2302640061774746e+00  9.2505371154985241e+00  9.2713857766239212e+00  9.2928101254512576e+00  9.3148103362255430e+00  9.3373866215392560e+00  9.3605392323323340e+00  9.3842684578921549e+00  9.4085746258535643e+00  9.4334581021988235e+00  9.4589192912576898e+00  9.4849586357073452e+00  9.5115766165724480e+00  9.5387737532251062e+00  9.5665506033848402e+00  9.5949077631186555e+00  9.6238458668410196e+00  9.6533655873138269e+00  9.6834676356464477e+00  9.7141527612956899e+00  9.7454217520658180e+00  9.7769954996899084e+00  9.8095520903637166e+00  9.8428558251985425e+00  9.8764369342470442e+00  9.9099908307316262e+00  9.9433375381353297e+00  9.9763860810111566e+00  1.0009103839509942e+01  1.0041490867626653e+01  1.0073559175165192e+01  1.0105316973421724e+01  1.0136757884586430e+01  1.0167855114863789e+01  1.0198623257586169e+01  1.0229069420739126e+01  1.0259185097521872e+01  1.0288968748378675e+01  1.0318418868893007e+01  1.0347533989787538e+01  1.0376312676924115e+01  1.0404753531303861e+01  1.0432855189067045e+01  1.0460616321493173e+01  1.0488035635000944e+01  1.0515111871148271e+01  1.0541843806632269e+01  8.9994699791301507e+00  9.0093309903792935e+00  9.0197726593471987e+00  9.0307944327719234e+00  9.0423957957031114e+00  9.0545762715019720e+00  9.0673354218412747e+00  9.0806728467053350e+00  9.0945881843900622e+00  9.1090811115028600e+00  9.1241513429627688e+00  9.1397986320003710e+00  9.1560227701578114e+00  9.1728235872888000e+00  9.1902009515585572e+00  9.2081547694439294e+00  9.2266849857333018e+00  9.2457915835266231e+00  9.2654745842354203e+00  9.2857340475827606e+00  9.3065700716032680e+00  9.3279827926431587e+00  9.3499723853601751e+00  9.3725390627236482e+00  9.3956830760144676e+00  9.4194047148250917e+00  9.4437043070595230e+00  9.4685822189333244e+00  9.4940388549736383e+00  9.5200746580191531e+00  9.5466901092201404e+00  9.5738857280384320e+00  9.6016620722474038e+00  9.6300197379319954e+00  9.6589593594887138e+00  9.6884816096256330e+00  9.7185871993623909e+00  9.7492768780301837e+00  9.7805514332717767e+00  9.8121317566228470e+00  9.8446959340458555e+00  9.8780082663829365e+00  9.9115989833816691e+00  9.9451634979235184e+00  9.9785218331146694e+00  1.0011583013095400e+01  1.0044314417567897e+01  1.0076716100042621e+01  1.0108800069803063e+01  1.0140574537589094e+01  1.0172033124998711e+01  1.0203149037608316e+01  1.0233936868086303e+01  1.0264403723718393e+01  1.0294541096968022e+01  1.0324347447507822e+01  1.0353821270113743e+01  1.0382961094665042e+01  1.0411765486144269e+01  1.0440233044637317e+01  1.0468362405333380e+01  1.0496152238524999e+01  1.0523601249607985e+01  1.0550708179081505e+01  1.0577471802548015e+01  9.0342668626476961e+00  9.0440979273122206e+00  9.0545105873291618e+00  9.0655042906996144e+00  9.0770785236948690e+00  9.0892328108563660e+00  9.1019667149957044e+00  9.1152798371946187e+00  9.1291718168049840e+00  9.1436423314488362e+00  9.1586910970183482e+00  9.1743178676758674e+00  9.1905224358539144e+00  9.2073046322551395e+00  9.2246643258522756e+00  9.2426014238882956e+00  9.2611158718762887e+00  9.2802076535994900e+00  9.2998767911113038e+00  9.3201233447352774e+00  9.3409474130651020e+00  9.3623491329646065e+00  9.3843286795678100e+00  9.4068862662788266e+00  9.4300221447719803e+00  9.4537366049917164e+00  9.4780299751526549e+00  9.5029026217394943e+00  9.5283549495071718e+00  9.5543874014807102e+00  9.5810004589553319e+00  9.6081946414963806e+00  9.6359705069393726e+00  9.6643286513899458e+00  9.6932697092239053e+00  9.7227943530871954e+00  9.7529032938959208e+00  9.7835972808363536e+00  9.8148771013648997e+00  9.8464636467894753e+00  9.8790350028033682e+00  9.9123554699381096e+00  9.9459552775892988e+00  9.9795298382449644e+00  1.0012899174576487e+01  1.0045972310247915e+01  1.0078716624443786e+01  1.0111132170115493e+01  1.0143230955946063e+01  1.0175021192033466e+01  1.0206496499292427e+01  1.0237630082574654e+01  1.0268436533782403e+01  1.0298922959393886e+01  1.0329080851023587e+01  1.0358908667453788e+01  1.0388404902528668e+01  1.0417568085154310e+01  1.0446396779298706e+01  1.0474889583991720e+01  1.0503045133325156e+01  1.0530862096452694e+01  1.0558339177589954e+01  1.0585475116014436e+01  1.0612268686065566e+01  9.0682326337670229e+00  9.0780354932448493e+00  9.0884208286860364e+00  9.0993880895231687e+00  9.1109367634120453e+00  9.1230663762317068e+00  9.1357764920844176e+00  9.1490667132956478e+00  9.1629366804140844e+00  9.1773860722116023e+00  9.1924146056833411e+00  9.2080220360476090e+00  9.2242081567459913e+00  9.2409727994432878e+00  9.2583158340274334e+00  9.2762371686096632e+00  9.2947367495243931e+00  9.3138145613292576e+00  9.3334706268051235e+00  9.3537050069560763e+00  9.3745178010094037e+00  9.3959091464156135e+00  9.4178792188484248e+00  9.4404282322047912e+00  9.4635564386048667e+00  9.4872641283920416e+00  9.5115516301329404e+00  9.5364193106173332e+00  9.5618675748582813e+00  9.5878968660920130e+00  9.6145076657780084e+00  9.6417004935989468e+00  9.6694759074607397e+00  9.6978345034925066e+00  9.7267769160465818e+00  9.7563038176984946e+00  9.7864159192470392e+00  9.8171139697141960e+00  9.8483987563451940e+00  9.8799911701898004e+00  9.9125692966362369e+00  9.9458974358640688e+00  9.9795058168699153e+00  1.0013089851695966e+01  1.0046469562520791e+01  1.0079553972468709e+01  1.0112310460137611e+01  1.0144739077845262e+01  1.0176851833594171e+01  1.0208656936754839e+01  1.0240148007467592e+01  1.0271298249762800e+01  1.0302122254674472e+01  1.0332627127765605e+01  1.0362804359688568e+01  1.0392652408216568e+01  1.0422169766137774e+01  1.0451354961255351e+01  1.0480206556387417e+01  1.0508723149367050e+01  1.0536903373042323e+01  1.0564745895276250e+01  1.0592249418946841e+01  1.0619412681947072e+01  1.0646234457184903e+01  9.1013672924881490e+00  9.1111436881771777e+00  9.1215033834178385e+00  9.1324458292425827e+00  9.1439705148546349e+00  9.1560769676279889e+00  9.1687647531074141e+00  9.1820334750084438e+00  9.1958827752173562e+00  9.2103123337911903e+00  9.2253218689577299e+00  9.2409111371155781e+00  9.2570799328340279e+00  9.2738280888532412e+00  9.2911554760840200e+00  9.3090620036080232e+00  9.3275476186776061e+00  9.3466123067159241e+00  9.3662560913168811e+00  9.3864790342451521e+00  9.4072812354361837e+00  9.4286628329961601e+00  9.4506240032020337e+00  9.4731649605015207e+00  9.4962859575131180e+00  9.5199872850260618e+00  9.5442692720003990e+00  9.5691322855668446e+00  9.5945767310269723e+00  9.6206030518530614e+00  9.6472117296881734e+00  9.6744032843461252e+00  9.7021782738115121e+00  9.7305372942396779e+00  9.7594809799567308e+00  9.7890100034595502e+00  9.8191250754157338e+00  9.8498269446637110e+00  9.8811163982126509e+00  9.9127143268238154e+00  9.9452988155444828e+00  9.9786341641607983e+00  1.0012250601223526e+01  1.0045843538276522e+01  1.0079232996947574e+01  1.0112327999757783e+01  1.0145095924649347e+01  1.0177536823231916e+01  1.0209662702747387e+01  1.0241481771753204e+01  1.0272987649524188e+01  1.0304153539172759e+01  1.0334994030762497e+01  1.0365516228833558e+01  1.0395711622962965e+01  1.0425578669796151e+01  1.0455115860941060e+01  1.0484321722968152e+01  1.0513194817410408e+01  1.0541733740763323e+01  1.0569937124484907e+01  1.0597803634995659e+01  1.0625331973678644e+01  1.0652520876879404e+01  1.0679369115906031e+01  9.1336708388110743e+00  9.1434225121092005e+00  9.1537582515245592e+00  9.1646775098578601e+00  9.1761797780226377e+00  9.1882645850452107e+00  9.2009314980647012e+00  9.2141801223330013e+00  9.2280101012148048e+00  9.2424211161875753e+00  9.2574128868415482e+00  9.2729851708797444e+00  9.2891377641180330e+00  9.3058705004850069e+00  9.3231832520220479e+00  9.3410759288833756e+00  9.3595484793359383e+00  9.3786008897594897e+00  9.3982331846465677e+00  9.4184454266025117e+00  9.4392377163454402e+00  9.4606101927062500e+00  9.4825630326286259e+00  9.5050964511690417e+00  9.5282107014967394e+00  9.5519060748937719e+00  9.5761829007550112e+00  9.6010415465880303e+00  9.6264824180132518e+00  9.6525059587638591e+00  9.6791126506858234e+00  9.7063030137379158e+00  9.7340776059916809e+00  9.7624370236314633e+00  9.7913819009543737e+00  9.8209129103703319e+00  9.8510307624020150e+00  9.8817362056849021e+00  9.9130300269672702e+00  9.9446331166915272e+00  9.9772235595281114e+00  1.0010565654828316e+01  1.0044189630650129e+01  1.0077790897986631e+01  1.0111189477856843e+01  1.0144294392115144e+01  1.0177073017979033e+01  1.0209525406275469e+01  1.0241663563405716e+01  1.0273495697028574e+01  1.0305015425462219e+01  1.0336195950804523e+01  1.0367051862046479e+01  1.0397590262597735e+01  1.0427802640846780e+01  1.0457687452192550e+01  1.0487243186938523e+01  1.0516468370292721e+01  1.0545361562367690e+01  1.0573921358180542e+01  1.0602146387652898e+01  1.0630035315610936e+01  1.0657586841785365e+01  1.0684799700811434e+01  1.0711672662228954e+01  9.1651432727357882e+00  9.1748719650409374e+00  9.1851854330062022e+00  9.1960831313690061e+00  9.2075645529160575e+00  9.2196292284833756e+00  9.2322767269562700e+00  9.2455066552693346e+00  9.2593186584064497e+00  9.2737124194007752e+00  9.2886876593347676e+00  9.3042441373401630e+00  9.3203816505979837e+00  9.3371000343385706e+00  9.3543991618415205e+00  9.3722789444357311e+00  9.3907393314993932e+00  9.4097803104599560e+00  9.4294019067941939e+00  9.4496041840281571e+00  9.4703872437371821e+00  9.4917512255458956e+00  9.5136963071282068e+00  9.5362227042073258e+00  9.5593306705557310e+00  9.5830204979951965e+00  9.6072925163967806e+00  9.6321470936808886e+00  9.6575846358171127e+00  9.6836055868244006e+00  9.7102104287709654e+00  9.7373996817743222e+00  9.7651739040012604e+00  9.7935336916678626e+00  9.8224796790395104e+00  9.8520125384308663e+00  9.8821329802058706e+00  9.9128417527777586e+00  9.9441396426090627e+00  9.9757475397929305e+00  1.0008343528587099e+01  1.0041691907866610e+01  1.0075322905149729e+01  1.0108931930826282e+01  1.0142339005248594e+01  1.0175453149540786e+01  1.0208241740126654e+01  1.0240704826975929e+01  1.0272854415569148e+01  1.0304698712580914e