<?xml version="1.0"?>
<VTKFile type="UnstructuredGrid"  version="0.1"  >
<UnstructuredGrid>
<Piece  NumberOfPoints="4225" NumberOfCells="8192">
<Points>
<DataArray  type="Float64"  NumberOfComponents="3"  format="ascii">0 0 0  0.015625 0 0  0.03125 0 0  0.046875 0 0  0.0625 0 0  0.078125 0 0  0.09375 0 0  0.109375 0 0  0.125 0 0  0.140625 0 0  0.15625 0 0  0.171875 0 0  0.1875 0 0  0.203125 0 0  0.21875 0 0  0.234375 0 0  0.25 0 0  0.265625 0 0  0.28125 0 0  0.296875 0 0  0.3125 0 0  0.328125 0 0  0.34375 0 0  0.359375 0 0  0.375 0 0  0.390625 0 0  0.40625 0 0  0.421875 0 0  0.4375 0 0  0.453125 0 0  0.46875 0 0  0.484375 0 0  0.5 0 0  0.515625 0 0  0.53125 0 0  0.546875 0 0  0.5625 0 0  0.578125 0 0  0.59375 0 0  0.609375 0 0  0.625 0 0  0.640625 0 0  0.65625 0 0  0.671875 0 0  0.6875 0 0  0.703125 0 0  0.71875 0 0  0.734375 0 0  0.75 0 0  0.765625 0 0  0.78125 0 0  0.796875 0 0  0.8125 0 0  0.828125 0 0  0.84375 0 0  0.859375 0 0  0.875 0 0  0.890625 0 0  0.90625 0 0  0.921875 0 0  0.9375 0 0  0.953125 0 0  0.96875 0 0  0.984375 0 0  1 0 0  0 0.015625 0  0.015625 0.015625 0  0.03125 0.015625 0  0.046875 0.015625 0  0.0625 0.015625 0  0.078125 0.015625 0  0.09375 0.015625 0  0.109375 0.015625 0  0.125 0.015625 0  0.140625 0.015625 0  0.15625 0.015625 0  0.171875 0.015625 0  0.1875 0.015625 0  0.203125 0.015625 0  0.21875 0.015625 0  0.234375 0.015625 0  0.25 0.015625 0  0.265625 0.015625 0  0.28125 0.015625 0  0.296875 0.015625 0  0.3125 0.015625 0  0.328125 0.015625 0  0.34375 0.015625 0  0.359375 0.015625 0  0.375 0.015625 0  0.390625 0.015625 0  0.40625 0.015625 0  0.421875 0.015625 0  0.4375 0.015625 0  0.453125 0.015625 0  0.46875 0.015625 0  0.484375 0.015625 0  0.5 0.015625 0  0.515625 0.015625 0  0.53125 0.015625 0  0.546875 0.015625 0  0.5625 0.015625 0  0.578125 0.015625 0  0.59375 0.015625 0  0.609375 0.015625 0  0.625 0.015625 0  0.640625 0.015625 0  0.65625 0.015625 0  0.671875 0.015625 0  0.6875 0.015625 0  0.703125 0.015625 0  0.71875 0.015625 0  0.734375 0.015625 0  0.75 0.015625 0  0.765625 0.015625 0  0.78125 0.015625 0  0.796875 0.015625 0  0.8125 0.015625 0  0.828125 0.015625 0  0.84375 0.015625 0  0.859375 0.015625 0  0.875 0.015625 0  0.890625 0.015625 0  0.90625 0.015625 0  0.921875 0.015625 0  0.9375 0.015625 0  0.953125 0.015625 0  0.96875 0.015625 0  0.984375 0.015625 0  1 0.015625 0  0 0.03125 0  0.015625 0.03125 0  0.03125 0.03125 0  0.046875 0.03125 0  0.0625 0.03125 0  0.078125 0.03125 0  0.09375 0.03125 0  0.109375 0.03125 0  0.125 0.03125 0  0.140625 0.03125 0  0.15625 0.03125 0  0.171875 0.03125 0  0.1875 0.03125 0  0.203125 0.03125 0  0.21875 0.03125 0  0.234375 0.03125 0  0.25 0.03125 0  0.265625 0.03125 0  0.28125 0.03125 0  0.296875 0.03125 0  0.3125 0.03125 0  0.328125 0.03125 0  0.34375 0.03125 0  0.359375 0.03125 0  0.375 0.03125 0  0.390625 0.03125 0  0.40625 0.03125 0  0.421875 0.03125 0  0.4375 0.03125 0  0.453125 0.03125 0  0.46875 0.03125 0  0.484375 0.03125 0  0.5 0.03125 0  0.515625 0.03125 0  0.53125 0.03125 0  0.546875 0.03125 0  0.5625 0.03125 0  0.578125 0.03125 0  0.59375 0.03125 0  0.609375 0.03125 0  0.625 0.03125 0  0.640625 0.03125 0  0.65625 0.03125 0  0.671875 0.03125 0  0.6875 0.03125 0  0.703125 0.03125 0  0.71875 0.03125 0  0.734375 0.03125 0  0.75 0.03125 0  0.765625 0.03125 0  0.78125 0.03125 0  0.796875 0.03125 0  0.8125 0.03125 0  0.828125 0.03125 0  0.84375 0.03125 0  0.859375 0.03125 0  0.875 0.03125 0  0.890625 0.03125 0  0.90625 0.03125 0  0.921875 0.03125 0  0.9375 0.03125 0  0.953125 0.03125 0  0.96875 0.03125 0  0.984375 0.03125 0  1 0.03125 0  0 0.046875 0  0.015625 0.046875 0  0.03125 0.046875 0  0.046875 0.046875 0  0.0625 0.046875 0  0.078125 0.046875 0  0.09375 0.046875 0  0.109375 0.046875 0  0.125 0.046875 0  0.140625 0.046875 0  0.15625 0.046875 0  0.171875 0.046875 0  0.1875 0.046875 0  0.203125 0.046875 0  0.21875 0.046875 0  0.234375 0.046875 0  0.25 0.046875 0  0.265625 0.046875 0  0.28125 0.046875 0  0.296875 0.046875 0  0.3125 0.046875 0  0.328125 0.046875 0  0.34375 0.046875 0  0.359375 0.046875 0  0.375 0.046875 0  0.390625 0.046875 0  0.40625 0.046875 0  0.421875 0.046875 0  0.4375 0.046875 0  0.453125 0.046875 0  0.46875 0.046875 0  0.484375 0.046875 0  0.5 0.046875 0  0.515625 0.046875 0  0.53125 0.046875 0  0.546875 0.046875 0  0.5625 0.046875 0  0.578125 0.046875 0  0.59375 0.046875 0  0.609375 0.046875 0  0.625 0.046875 0  0.640625 0.046875 0  0.65625 0.046875 0  0.671875 0.046875 0  0.6875 0.046875 0  0.703125 0.046875 0  0.71875 0.046875 0  0.734375 0.046875 0  0.75 0.046875 0  0.765625 0.046875 0  0.78125 0.046875 0  0.796875 0.046875 0  0.8125 0.046875 0  0.828125 0.046875 0  0.84375 0.046875 0  0.859375 0.046875 0  0.875 0.046875 0  0.890625 0.046875 0  0.90625 0.046875 0  0.921875 0.046875 0  0.9375 0.046875 0  0.953125 0.046875 0  0.96875 0.046875 0  0.984375 0.046875 0  1 0.046875 0  0 0.0625 0  0.015625 0.0625 0  0.03125 0.0625 0  0.046875 0.0625 0  0.0625 0.0625 0  0.078125 0.0625 0  0.09375 0.0625 0  0.109375 0.0625 0  0.125 0.0625 0  0.140625 0.0625 0  0.15625 0.0625 0  0.171875 0.0625 0  0.1875 0.0625 0  0.203125 0.0625 0  0.21875 0.0625 0  0.234375 0.0625 0  0.25 0.0625 0  0.265625 0.0625 0  0.28125 0.0625 0  0.296875 0.0625 0  0.3125 0.0625 0  0.328125 0.0625 0  0.34375 0.0625 0  0.359375 0.0625 0  0.375 0.0625 0  0.390625 0.0625 0  0.40625 0.0625 0  0.421875 0.0625 0  0.4375 0.0625 0  0.453125 0.0625 0  0.46875 0.0625 0  0.484375 0.0625 0  0.5 0.0625 0  0.515625 0.0625 0  0.53125 0.0625 0  0.546875 0.0625 0  0.5625 0.0625 0  0.578125 0.0625 0  0.59375 0.0625 0  0.609375 0.0625 0  0.625 0.0625 0  0.640625 0.0625 0  0.65625 0.0625 0  0.671875 0.0625 0  0.6875 0.0625 0  0.703125 0.0625 0  0.71875 0.0625 0  0.734375 0.0625 0  0.75 0.0625 0  0.765625 0.0625 0  0.78125 0.0625 0  0.796875 0.0625 0  0.8125 0.0625 0  0.828125 0.0625 0  0.84375 0.0625 0  0.859375 0.0625 0  0.875 0.0625 0  0.890625 0.0625 0  0.90625 0.0625 0  0.921875 0.0625 0  0.9375 0.0625 0  0.953125 0.0625 0  0.96875 0.0625 0  0.984375 0.0625 0  1 0.0625 0  0 0.078125 0  0.015625 0.078125 0  0.03125 0.078125 0  0.046875 0.078125 0  0.0625 0.078125 0  0.078125 0.078125 0  0.09375 0.078125 0  0.109375 0.078125 0  0.125 0.078125 0  0.140625 0.078125 0  0.15625 0.078125 0  0.171875 0.078125 0  0.1875 0.078125 0  0.203125 0.078125 0  0.21875 0.078125 0  0.234375 0.078125 0  0.25 0.078125 0  0.265625 0.078125 0  0.28125 0.078125 0  0.296875 0.078125 0  0.3125 0.078125 0  0.328125 0.078125 0  0.34375 0.078125 0  0.359375 0.078125 0  0.375 0.078125 0  0.390625 0.078125 0  0.40625 0.078125 0  0.421875 0.078125 0  0.4375 0.078125 0  0.453125 0.078125 0  0.46875 0.078125 0  0.484375 0.078125 0  0.5 0.078125 0  0.515625 0.078125 0  0.53125 0.078125 0  0.546875 0.078125 0  0.5625 0.078125 0  0.578125 0.078125 0  0.59375 0.078125 0  0.609375 0.078125 0  0.625 0.078125 0  0.640625 0.078125 0  0.65625 0.078125 0  0.671875 0.078125 0  0.6875 0.078125 0  0.703125 0.078125 0  0.71875 0.078125 0  0.734375 0.078125 0  0.75 0.078125 0  0.765625 0.078125 0  0.78125 0.078125 0  0.796875 0.078125 0  0.8125 0.078125 0  0.828125 0.078125 0  0.84375 0.078125 0  0.859375 0.078125 0  0.875 0.078125 0  0.890625 0.078125 0  0.90625 0.078125 0  0.921875 0.078125 0  0.9375 0.078125 0  0.953125 0.078125 0  0.96875 0.078125 0  0.984375 0.078125 0  1 0.078125 0  0 0.09375 0  0.015625 0.09375 0  0.03125 0.09375 0  0.046875 0.09375 0  0.0625 0.09375 0  0.078125 0.09375 0  0.09375 0.09375 0  0.109375 0.09375 0  0.125 0.09375 0  0.140625 0.09375 0  0.15625 0.09375 0  0.171875 0.09375 0  0.1875 0.09375 0  0.203125 0.09375 0  0.21875 0.09375 0  0.234375 0.09375 0  0.25 0.09375 0  0.265625 0.09375 0  0.28125 0.09375 0  0.296875 0.09375 0  0.3125 0.09375 0  0.328125 0.09375 0  0.34375 0.09375 0  0.359375 0.09375 0  0.375 0.09375 0  0.390625 0.09375 0  0.40625 0.09375 0  0.421875 0.09375 0  0.4375 0.09375 0  0.453125 0.09375 0  0.46875 0.09375 0  0.484375 0.09375 0  0.5 0.09375 0  0.515625 0.09375 0  0.53125 0.09375 0  0.546875 0.09375 0  0.5625 0.09375 0  0.578125 0.09375 0  0.59375 0.09375 0  0.609375 0.09375 0  0.625 0.09375 0  0.640625 0.09375 0  0.65625 0.09375 0  0.671875 0.09375 0  0.6875 0.09375 0  0.703125 0.09375 0  0.71875 0.09375 0  0.734375 0.09375 0  0.75 0.09375 0  0.765625 0.09375 0  0.78125 0.09375 0  0.796875 0.09375 0  0.8125 0.09375 0  0.828125 0.09375 0  0.84375 0.09375 0  0.859375 0.09375 0  0.875 0.09375 0  0.890625 0.09375 0  0.90625 0.09375 0  0.921875 0.09375 0  0.9375 0.09375 0  0.953125 0.09375 0  0.96875 0.09375 0  0.984375 0.09375 0  1 0.09375 0  0 0.109375 0  0.015625 0.109375 0  0.03125 0.109375 0  0.046875 0.109375 0  0.0625 0.109375 0  0.078125 0.109375 0  0.09375 0.109375 0  0.109375 0.109375 0  0.125 0.109375 0  0.140625 0.109375 0  0.15625 0.109375 0  0.171875 0.109375 0  0.1875 0.109375 0  0.203125 0.109375 0  0.21875 0.109375 0  0.234375 0.109375 0  0.25 0.109375 0  0.265625 0.109375 0  0.28125 0.109375 0  0.296875 0.109375 0  0.3125 0.109375 0  0.328125 0.109375 0  0.34375 0.109375 0  0.359375 0.109375 0  0.375 0.109375 0  0.390625 0.109375 0  0.40625 0.109375 0  0.421875 0.109375 0  0.4375 0.109375 0  0.453125 0.109375 0  0.46875 0.109375 0  0.484375 0.109375 0  0.5 0.109375 0  0.515625 0.109375 0  0.53125 0.109375 0  0.546875 0.109375 0  0.5625 0.109375 0  0.578125 0.109375 0  0.59375 0.109375 0  0.609375 0.109375 0  0.625 0.109375 0  0.640625 0.109375 0  0.65625 0.109375 0  0.671875 0.109375 0  0.6875 0.109375 0  0.703125 0.109375 0  0.71875 0.109375 0  0.734375 0.109375 0  0.75 0.109375 0  0.765625 0.109375 0  0.78125 0.109375 0  0.796875 0.109375 0  0.8125 0.109375 0  0.828125 0.109375 0  0.84375 0.109375 0  0.859375 0.109375 0  0.875 0.109375 0  0.890625 0.109375 0  0.90625 0.109375 0  0.921875 0.109375 0  0.9375 0.109375 0  0.953125 0.109375 0  0.96875 0.109375 0  0.984375 0.109375 0  1 0.109375 0  0 0.125 0  0.015625 0.125 0  0.03125 0.125 0  0.046875 0.125 0  0.0625 0.125 0  0.078125 0.125 0  0.09375 0.125 0  0.109375 0.125 0  0.125 0.12
[...]
<PointData  Scalars="F1_1"> 
<DataArray  type="Float64"  Name="F1_1"  format="ascii">2.0262975046199180e-15  1.1613481544214178e-15  1.2347400433302558e-15  1.0693013484390937e-15  9.6351464170339041e-16  8.8136764043886264e-16  9.3718681043221189e-16  9.1158124431696369e-16  9.2709554334070645e-16  7.2544522727498576e-16  7.2304427024878556e-16  1.1882152059316036e-15  1.1016755890826691e-15  1.2891432279521020e-15  1.1077672229600780e-15  9.7276934588542413e-16  9.2821131223553232e-16  8.6834371753340101e-16  7.8758579266637097e-16  9.4316552763769125e-16  6.7903485308551507e-16  5.7423974197019459e-16  1.3265530581423048e-15  1.1823407286267120e-15  1.1537688420786375e-15  9.8021785491678106e-16  8.5492133344011261e-16  7.9126580913828621e-16  9.0471457791775710e-16  8.5990332477616715e-16  8.0562076786037417e-16  7.8348952047843588e-16  3.9185458224802743e-16  1.0800515279516905e-15  1.3639774909111101e-15  1.1312919733996220e-15  1.0180204531797439e-15  9.9484093171484639e-16  7.7245334920050540e-16  8.7348038428303576e-16  8.4073186793736284e-16  8.4782366445254312e-16  4.5558949148645550e-16  1.1523001862128553e-15  1.3544382654951488e-15  1.1967331491591027e-15  1.0865405750328052e-15  1.0040856420728812e-15  8.5655942123379045e-16  8.7504435174461847e-16  8.4289922575481968e-16  8.2304050648779370e-16  6.6521708208955767e-16  6.5709615898897907e-16  1.1665133857503514e-15  1.0161825538485700e-15  1.2089404273173992e-15  1.0564120317454218e-15  8.2891882507802917e-16  9.0762438848465179e-16  9.5280109491268337e-16  8.2590975340441571e-16  6.5967177101460519e-16  7.3618265582448545e-16  3.3822409341466376e-16  7.8125000000002082e-02  7.8043110925913386e-02  7.7963821504969708e-02  7.7887131737172377e-02  7.7813041622520729e-02  7.7741551161014597e-02  7.7672660352654230e-02  7.7606369197439573e-02  7.7542677695370474e-02  7.7481585846447279e-02  7.7423093650669794e-02  7.7367201108039504e-02  7.7313908218552330e-02  7.7263214982211642e-02  7.7215121399016678e-02  7.7169627468967286e-02  7.7126733192063646e-02  7.7086438568305535e-02  7.7048743597693106e-02  7.7013648280226374e-02  7.6981152615905463e-02  7.6951256604730525e-02  7.6923960246702450e-02  7.6899263541817781e-02  7.6877166490079418e-02  7.6857669091486752e-02  7.6840771346039990e-02  7.6826473253738592e-02  7.6814774814582931e-02  7.6805676028572981e-02  7.6799176895708643e-02  7.6795277415990293e-02  7.6793977589417625e-02  7.6795277415990792e-02  7.6799176895709309e-02  7.6805676028573466e-02  7.6814774814583292e-02  7.6826473253738481e-02  7.6840771346039699e-02  7.6857669091486405e-02  7.6877166490078766e-02  7.6899263541816754e-02  7.6923960246700757e-02  7.6951256604731871e-02  7.6981152615906143e-02  7.7013648280227123e-02  7.7048743597693634e-02  7.7086438568305882e-02  7.7126733192063479e-02  7.7169627468966967e-02  7.7215121399015998e-02  7.7263214982210643e-02  7.7313908218551289e-02  7.7367201108037659e-02  7.7423093650671349e-02  7.7481585846447751e-02  7.7542677695370960e-02  7.7606369197439906e-02  7.7672660352654355e-02  7.7741551161014416e-02  7.7813041622520299e-02  7.7887131737171822e-02  7.7963821504968819e-02  7.8043110925911888e-02  7.8125000000000666e-02  1.5625000000000203e-01  1.5608622185182508e-01  1.5592764300993858e-01  1.5577426347434339e-01  1.5562608324504007e-01  1.5548310232202830e-01  1.5534532070530771e-01  1.5521273839487842e-01  1.5508535539074056e-01  1.5496317169289403e-01  1.5484618730133903e-01  1.5473440221607632e-01  1.5462781643710388e-01  1.5452642996442159e-01  1.5443024279803172e-01  1.5433925493793316e-01  1.5425346638412607e-01  1.5417287713661018e-01  1.5409748719538580e-01  1.5402729656045266e-01  1.5396230523181093e-01  1.5390251320946063e-01  1.5384792049340251e-01  1.5379852708363451e-01  1.5375433298015742e-01  1.5371533818297220e-01  1.5368154269207845e-01  1.5365294650747610e-01  1.5362954962916503e-01  1.5361135205714524e-01  1.5359835379141706e-01  1.5359055483198006e-01  1.5358795517883453e-01  1.5359055483198125e-01  1.5359835379141745e-01  1.5361135205714549e-01  1.5362954962916506e-01  1.5365294650747607e-01  1.5368154269207845e-01  1.5371533818297220e-01  1.5375433298015728e-01  1.5379852708363370e-01  1.5384792049340143e-01  1.5390251320946180e-01  1.5396230523181187e-01  1.5402729656045294e-01  1.5409748719538582e-01  1.5417287713661021e-01  1.5425346638412601e-01  1.5433925493793316e-01  1.5443024279803153e-01  1.5452642996442142e-01  1.5462781643710252e-01  1.5473440221607510e-01  1.5484618730134020e-01  1.5496317169289481e-01  1.5508535539074059e-01  1.5521273839487837e-01  1.5534532070530754e-01  1.5548310232202803e-01  1.5562608324503988e-01  1.5577426347434309e-01  1.5592764300993764e-01  1.5608622185182364e-01  1.5625000000000105e-01  2.3437500000000144e-01  2.3412933277773601e-01  2.3389146451490694e-01  2.3366139521151477e-01  2.3343912486755947e-01  2.3322465348304167e-01  2.3301798105796079e-01  2.3281910759231711e-01  2.3262803308611038e-01  2.3244475753934063e-01  2.3226928095200797e-01  2.3210160332411281e-01  2.3194172465565427e-01  2.3178964494663240e-01  2.3164536419704673e-01  2.3150888240689904e-01  2.3138019957618836e-01  2.3125931570491473e-01  2.3114623079307811e-01  2.3104094484067852e-01  2.3094345784771597e-01  2.3085376981419034e-01  2.3077188074010280e-01  2.3069779062545054e-01  2.3063149947023592e-01  2.3057300727445784e-01  2.3052231403811707e-01  2.3047941976121364e-01  2.3044432444374707e-01  2.3041702808571751e-01  2.3039753068712518e-01  2.3038583224796971e-01  2.3038193276825125e-01  2.3038583224797043e-01  2.3039753068712565e-01  2.3041702808571798e-01  2.3044432444374710e-01  2.3047941976121364e-01  2.3052231403811732e-01  2.3057300727445784e-01  2.3063149947023562e-01  2.3069779062545037e-01  2.3077188074010185e-01  2.3085376981419142e-01  2.3094345784771689e-01  2.3104094484067897e-01  2.3114623079307833e-01  2.3125931570491470e-01  2.3138019957618838e-01  2.3150888240689915e-01  2.3164536419704690e-01  2.3178964494663171e-01  2.3194172465565349e-01  2.3210160332411225e-01  2.3226928095200886e-01  2.3244475753934105e-01  2.3262803308611085e-01  2.3281910759231705e-01  2.3301798105796073e-01  2.3322465348304153e-01  2.3343912486755941e-01  2.3366139521151430e-01  2.3389146451490617e-01  2.3412933277773509e-01  2.3437500000000103e-01  3.1250000000000128e-01  3.1217244370364716e-01  3.1185528601987506e-01  3.1154852694868573e-01  3.1125216649007947e-01  3.1096620464405533e-01  3.1069064141061420e-01  3.1042547678975585e-01  3.1017071078148017e-01  3.0992634338578706e-01  3.0969237460267679e-01  3.0946880443214964e-01  3.0925563287420504e-01  3.0905285992884207e-01  3.0886048559606272e-01  3.0867850987586537e-01  3.0850693276825092e-01  3.0834575427321947e-01  3.0819497439077054e-01  3.0805459312090439e-01  3.0792461046362068e-01  3.0780502641891999e-01  3.0769584098680280e-01  3.0759705416726701e-01  3.0750866596031368e-01  3.0743067636594379e-01  3.0736308538415613e-01  3.0730589301495131e-01  3.0725909925832917e-01  3.0722270411428981e-01  3.0719670758283313e-01  3.0718110966395928e-01  3.0717591035766784e-01  3.0718110966395995e-01  3.0719670758283357e-01  3.0722270411428987e-01  3.0725909925832928e-01  3.0730589301495137e-01  3.0736308538415613e-01  3.0743067636594351e-01  3.0750866596031368e-01  3.0759705416726657e-01  3.0769584098680208e-01  3.0780502641892082e-01  3.0792461046362152e-01  3.0805459312090455e-01  3.0819497439077098e-01  3.0834575427321970e-01  3.0850693276825103e-01  3.0867850987586531e-01  3.0886048559606216e-01  3.0905285992884179e-01  3.0925563287420410e-01  3.0946880443214903e-01  3.0969237460267790e-01  3.0992634338578762e-01  3.1017071078148023e-01  3.1042547678975624e-01  3.1069064141061431e-01  3.1096620464405533e-01  3.1125216649007897e-01  3.1154852694868540e-01  3.1185528601987444e-01  3.1217244370364639e-01  3.1250000000000078e-01  3.9062500000000122e-01  3.9021555462955843e-01  3.8981910752484350e-01  3.8943565868585661e-01  3.8906520811259881e-01  3.8870775580506983e-01  3.8836330176326772e-01  3.8803184598719476e-01  3.8771338847684989e-01  3.8740792923223355e-01  3.8711546825334547e-01  3.8683600554018682e-01  3.8656954109275576e-01  3.8631607491105224e-01  3.8607560699507754e-01  3.8584813734483203e-01  3.8563366596031390e-01  3.8543219284152436e-01  3.8524371798846302e-01  3.8506824140112994e-01  3.8490576307952556e-01  3.8475628302364961e-01  3.8461980123350303e-01  3.8449631770908338e-01  3.8438583245039171e-01  3.8428834545742896e-01  3.8420385673019541e-01  3.8413236626868907e-01  3.8407387407291144e-01  3.8402838014286217e-01  3.8399588447854105e-01  3.8397638707994847e-01  3.8396988794708425e-01  3.8397638707994952e-01  3.8399588447854177e-01  3.8402838014286217e-01  3.8407387407291160e-01  3.8413236626868918e-01  3.8420385673019519e-01  3.8428834545742946e-01  3.8438583245039182e-01  3.8449631770908266e-01  3.8461980123350192e-01  3.8475628302365045e-01  3.8490576307952667e-01  3.8506824140113072e-01  3.8524371798846313e-01  3.8543219284152475e-01  3.8563366596031395e-01  3.8584813734483181e-01  3.8607560699507770e-01  3.8631607491105197e-01  3.8656954109275465e-01  3.8683600554018582e-01  3.8711546825334658e-01  3.8740792923223422e-01  3.8771338847685005e-01  3.8803184598719470e-01  3.8836330176326822e-01  3.8870775580506917e-01  3.8906520811259870e-01  3.8943565868585645e-01  3.8981910752484272e-01  3.9021555462955737e-01  3.9062500000000050e-01  4.6875000000000128e-01  4.6825866555546980e-01  4.6778292902981200e-01  4.6732279042302788e-01  4.6687824973511804e-01  4.6644930696608300e-01  4.6603596211592169e-01  4.6563821518463394e-01  4.6525606617221998e-01  4.6488951507868020e-01  4.6453856190401449e-01  4.6420320664822357e-01  4.6388344931130659e-01  4.6357928989326286e-01  4.6329072839409280e-01  4.6301776481379742e-01  4.6276039915237699e-01  4.6251863140982941e-01  4.6229246158615578e-01  4.6208188968135622e-01  4.6188691569543039e-01  4.6170753962837902e-01  4.6154376148020282e-01  4.6139558125089980e-01  4.6126299894047007e-01  4.6114601454891457e-01  4.6104462807623392e-01  4.6095883952242767e-01  4.6088864888749392e-01  4.6083405617143469e-01  4.6079506137424914e-01  4.6077166449593793e-01  4.6076386553650100e-01  4.6077166449593876e-01  4.6079506137425008e-01  4.6083405617143469e-01  4.6088864888749342e-01  4.6095883952242733e-01  4.6104462807623392e-01  4.6114601454891557e-01  4.6126299894047040e-01  4.6139558125089897e-01  4.6154376148020204e-01  4.6170753962838018e-01  4.6188691569543167e-01  4.6208188968135638e-01  4.6229246158615539e-01  4.6251863140982896e-01  4.6276039915237716e-01  4.6301776481379814e-01  4.6329072839409358e-01  4.6357928989326253e-01  4.6388344931130543e-01  4.6420320664822268e-01  4.6453856190401555e-01  4.6488951507868093e-01  4.6525606617221987e-01  4.6563821518463311e-01  4.6603596211592130e-01  4.6644930696608389e-01  4.6687824973511849e-01  4.6732279042302810e-01  4.6778292902981133e-01  4.6825866555546863e-01  4.6875000000000044e-01  5.4687500000000167e-01  5.4630177648138101e-01  5.4574675053478061e-01  5.4520992216019915e-01  5.4469129135763783e-01  5.4419085812709656e-01  5.4370862246857521e-01  5.4324458438207290e-01  5.4279874386758997e-01  5.4237110092512697e-01  5.4196165555468356e-01  5.4157040775626064e-01  5.4119735752985754e-01  5.4084250487547314e-01  5.4050584979310834e-01  5.4018739228276358e-01  5.3988713234443919e-01  5.3960506997813473e-01  5.3934120518384854e-01  5.3909553796158238e-01  5.3886806831133560e-01  5.3865879623310897e-01  5.3846772172690294e-01  5.3829484479271628e-01  5.3814016543054843e-01  5.3800368364040041e-01  5.3788539942227254e-01  5.3778531277616481e-01  5.3770342370207647e-01  5.3763973220000705e-01  5.3759423826995767e-01  5.3756694191192744e-01  5.3755784312591759e-01  5.3756694191192855e-01  5.3759423826995834e-01  5.3763973220000705e-01  5.3770342370207547e-01  5.3778531277616459e-01  5.3788539942227387e-01  5.3800368364040063e-01  5.3814016543054888e-01  5.3829484479271561e-01  5.3846772172690238e-01  5.3865879623310986e-01  5.3886806831133671e-01  5.3909553796158260e-01  5.3934120518384820e-01  5.3960506997813351e-01  5.3988713234443919e-01  5.4018739228276502e-01  5.4050584979310901e-01  5.4084250487547325e-01  5.4119735752985654e-01  5.4157040775625986e-01  5.4196165555468412e-01  5.4237110092512764e-01  5.4279874386759008e-01  5.4324458438207224e-01  5.4370862246857432e-01  5.4419085812709711e-01  5.4469129135763872e-01  5.4520992216019937e-01  5.4574675053478006e-01  5.4630177648138023e-01  5.4687500000000056e-01  6.2500000000000144e-01  6.2434488740729210e-01  6.2371057203974878e-01  6.2309705389737058e-01  6.2250433298015750e-01  6.2193240928810989e-01  6.2138128282122795e-01  6.2085095357951170e-01  6.2034142156295979e-01  6.1985268677157368e-01  6.1938474920535258e-01  6.1893760886429749e-01  6.1851126574840787e-01  6.1810571985768381e-01  6.1772097119212388e-01  6.1735701975172974e-01  6.1701386553650139e-01  6.1669150854643884e-01  6.1638994878154141e-01  6.1610918624180799e-01  6.1584922092724081e-01  6.1561005283783854e-01  6.1539168197360272e-01  6.1519410833453225e-01  6.1501733192062691e-01  6.1486135273188625e-01  6.1472617076831115e-01  6.1461178602990185e-01  6.1451819851665856e-01  6.1444540822857996e-01  6.1439341516566581e-01  6.1436221932791746e-01  6.1435182071533434e-01  6.1436221932791746e-01  6.1439341516566603e-01  6.1444540822857951e-01  6.1451819851665768e-01  6.1461178602990163e-01  6.1472617076831160e-01  6.1486135273188736e-01  6.1501733192062658e-01  6.1519410833453225e-01  6.1539168197360250e-01  6.1561005283783921e-01  6.1584922092724126e-01  6.1610918624180855e-01  6.1638994878154063e-01  6.1669150854643817e-01  6.1701386553650139e-01  6.1735701975173063e-01  6.1772097119212499e-01  6.1810571985768337e-01  6.1851126574840753e-01  6.1893760886429683e-01  6.1938474920535225e-01  6.1985268677157379e-01  6.2034142156296002e-01  6.2085095357951126e-01  6.2138128282122751e-01  6.2193240928811000e-01  6.2250433298015817e-01  6.2309705389737102e-01  6.2371057203974856e-01  6.2434488740729166e-01  6.2500000000000056e-01  7.0312500000000089e-01  7.0238799833320298e-01  7.0167439354471661e-01  7.0098418563454157e-01  7.0031737460267696e-01  6.9967396044912333e-01  6.9905394317388092e-01  6.9845732277694983e-01  6.9788409925832973e-01  6.9733427261802028e-01  6.9680784285602138e-01  6.9630480997233390e-01  6.9582517396695809e-01  6.9536893483989315e-01  6.9493609259113920e-01  6.9452664722069613e-01  6.9414059872856348e-01  6.9377794711474250e-01  6.9343869237923295e-01  6.9312283452203438e-01  6.9283037354314581e-01  6.9256130944256844e-01  6.9231564222030240e-01  6.9209337187634801e-01  6.9189449841070483e-01  6.9171902182337230e-01  6.9156694211434999e-01  6.9143825928363911e-01  6.9133297333123978e-01  6.9125108425715176e-01  6.9119259206137396e-01  6.9115749674390681e-01  6.9114579830475109e-01  6.9115749674390625e-01  6.9119259206137384e-01  6.9125108425715165e-01  6.9133297333124000e-01  6.9143825928363933e-01  6.9156694211434999e-01  6.9171902182337208e-01  6.9189449841070538e-01  6.9209337187634845e-01  6.9231564222030284e-01  6.9256130944256888e-01  6.9283037354314581e-01  6.9312283452203416e-01  6.9343869237923328e-01  6.9377794711474339e-01  6.9414059872856393e-01  6.9452664722069601e-01  6.9493609259113931e-01  6.9536893483989393e-01  6.9582517396695831e-01  6.9630480997233413e-01  6.9680784285602049e-01  6.9733427261802006e-01  6.9788409925832995e-01  6.9845732277695016e-01  6.9905394317388103e-01  6.9967396044912300e-01  7.0031737460267696e-01  7.0098418563454135e-01  7.0167439354471695e-01  7.0238799833320309e-01  7.0312500000000022e-01  7.8125000000000089e-01  7.8043110925911452e-01  7.7963821504968500e-01  7.7887131737171234e-01  7.7813041622519630e-01  7.7741551161013667e-01  7.7672660352653411e-01  7.7606369197438829e-01  7.7542677695369888e-01  7.7481585846446643e-01  7.7423093650669017e-01  7.7367201108037120e-01  7.7313908218550886e-01  7.7263214982210304e-01  7.7215121399015452e-01  7.7169627468966162e-01  7.7126733192062646e-01  7.7086438568304749e-01  7.7048743597692515e-01  7.7013648280225966e-01  7.6981152615905069e-01  7.6951256604729834e-01  7.6923960246700229e-01  7.6899263541816432e-01  7.6877166490078275e-01  7.6857669091485792e-01  7.6840771346038883e-01  7.6826473253737682e-01  7.6814774814582143e-01  7.6805676028572334e-01  7.6799176895708121e-01  7.6795277415989638e-01  7.6793977589416795e-01  7.6795277415989638e-01  7.6799176895708166e-01  7.6805676028572389e-01  7.6814774814582221e-01  7.6826473253737704e-01  7.6840771346038872e-01  7.6857669091485725e-01  7.6877166490078275e-01  7.6899263541816487e-01  7.6923960246700340e-01  7.6951256604729867e-01  7.6981152615905057e-01  7.7013648280225966e-01  7.7048743597692526e-01  7.7086438568304760e-01  7.7126733192062669e-01  7.7169627468966207e-01  7.7215121399015407e-01  7.7263214982210360e-01  7.7313908218550909e-01  7.7367201108037120e-01  7.7423093650669006e-01  7.7481585846446632e-01  7.7542677695369977e-01  7.7606369197438896e-01  7.7672660352653422e-01  7.7741551161013678e-01  7.7813041622519585e-01  7.7887131737171234e-01  7.7963821504968478e-01  7.8043110925911452e-01  7.8125000000000044e-01  8.5937500000000389e-01  8.5847422018502817e-01  8.5760203655465617e-01  8.5675844910888477e-01  8.5594345784771719e-01  8.5515706277115133e-01  8.5439926387918841e-01  8.5367006117182753e-01  8.5296945464906870e-01  8.5229744431091203e-01  8.5165403015735963e-01  8.5103921218841050e-01  8.5045299040406275e-01  8.4989536480431616e-01  8.4936633538917139e-01  8.4886590215862912e-01  8.4839406511269000e-01  8.4795082425135326e-01  8.4753617957461791e-01  8.4715013108248627e-01  8.4679267877495501e-01  8.4646382265202802e-01  8.4616356271370508e-01  8.4589189895998296e-01  8.4564883139086255e-01  8.4543436000634431e-01  8.4524848480642878e-01  8.4509120579111530e-01  8.4496252296040497e-01  8.4486243631429614e-01  8.4479094585278902e-01  8.4474805157588506e-01  8.4473375348358282e-01  8.4474805157588972e-01  8.4479094585279257e-01  8.4486243631429803e-01  8.4496252296040542e-01  8.4509120579111574e-01  8.4524848480642878e-01  8.4543436000634409e-01  8.4564883139086100e-01  8.4589189895997985e-01  8.4616356271370297e-01  8.4646382265202957e-01  8.4679267877495934e-01  8.4715013108248716e-01  8.4753617957461880e-01  8.4795082425135282e-01  8.4839406511269044e-01  8.4886590215862923e-01  8.4936633538917072e-01  8.4989536480431371e-01  8.5045299040405953e-01  8.5103921218840706e-01  8.5165403015736318e-01  8.5229744431091570e-01  8.5296945464907081e-01  8.5367006117182875e-01  8.5439926387918952e-01  8.5515706277115200e-01  8.5594345784771664e-01  8.5675844910888443e-01  8.5760203655465306e-01  8.5847422018502551e-01  8.5937499999999944e-01  9.3750000000000333e-01  9.3651733111094049e-01  9.3556585805962444e-01  9.3464558084605631e-01  9.3375649947023720e-01  9.3289861393216567e-01  9.3207192423184249e-01  9.3127643036926688e-01  9.3051213234443919e-01  9.2977903015736019e-01  9.2907712380802920e-01  9.2840641329644902e-01  9.2776689862261286e-01  9.2715857978652672e-01  9.2658145678818704e-01  9.2603552962759594e-01  9.2552079830475253e-01  9.2503726281965815e-01  9.2458492317231133e-01  9.2416377936271155e-01  9.2377383139086078e-01  9.2341507925675781e-01  9.2308752296040730e-01  9.2279116250179927e-01  9.2252599788094058e-01  9.2229202909783070e-01  9.2208925615246840e-01  9.2191767904485356e-01  9.2177729777498740e-01  9.2166811234286850e-01  9.2159012274849805e-01  9.2154332899187619e-01  9.2152773107300223e-01  9.2154332899187963e-01  9.2159012274850094e-01  9.2166811234287005e-01  9.2177729777498751e-01  9.2191767904485400e-01  9.2208925615246740e-01  9.2229202909783015e-01  9.2252599788093992e-01  9.2279116250179782e-01  9.2308752296040386e-01  9.2341507925676269e-01  9.2377383139086267e-01  9.2416377936271354e-01  9.2458492317231156e-01  9.2503726281965859e-01  9.2552079830475287e-01  9.2603552962759594e