<?xml version="1.0"?>
<VTKFile type="UnstructuredGrid"  version="0.1"  >
<UnstructuredGrid>
<Piece  NumberOfPoints="4225" NumberOfCells="8192">
<Points>
<DataArray  type="Float64"  NumberOfComponents="3"  format="ascii">0 0 0  0.015625 0 0  0.03125 0 0  0.046875 0 0  0.0625 0 0  0.078125 0 0  0.09375 0 0  0.109375 0 0  0.125 0 0  0.140625 0 0  0.15625 0 0  0.171875 0 0  0.1875 0 0  0.203125 0 0  0.21875 0 0  0.234375 0 0  0.25 0 0  0.265625 0 0  0.28125 0 0  0.296875 0 0  0.3125 0 0  0.328125 0 0  0.34375 0 0  0.359375 0 0  0.375 0 0  0.390625 0 0  0.40625 0 0  0.421875 0 0  0.4375 0 0  0.453125 0 0  0.46875 0 0  0.484375 0 0  0.5 0 0  0.515625 0 0  0.53125 0 0  0.546875 0 0  0.5625 0 0  0.578125 0 0  0.59375 0 0  0.609375 0 0  0.625 0 0  0.640625 0 0  0.65625 0 0  0.671875 0 0  0.6875 0 0  0.703125 0 0  0.71875 0 0  0.734375 0 0  0.75 0 0  0.765625 0 0  0.78125 0 0  0.796875 0 0  0.8125 0 0  0.828125 0 0  0.84375 0 0  0.859375 0 0  0.875 0 0  0.890625 0 0  0.90625 0 0  0.921875 0 0  0.9375 0 0  0.953125 0 0  0.96875 0 0  0.984375 0 0  1 0 0  0 0.015625 0  0.015625 0.015625 0  0.03125 0.015625 0  0.046875 0.015625 0  0.0625 0.015625 0  0.078125 0.015625 0  0.09375 0.015625 0  0.109375 0.015625 0  0.125 0.015625 0  0.140625 0.015625 0  0.15625 0.015625 0  0.171875 0.015625 0  0.1875 0.015625 0  0.203125 0.015625 0  0.21875 0.015625 0  0.234375 0.015625 0  0.25 0.015625 0  0.265625 0.015625 0  0.28125 0.015625 0  0.296875 0.015625 0  0.3125 0.015625 0  0.328125 0.015625 0  0.34375 0.015625 0  0.359375 0.015625 0  0.375 0.015625 0  0.390625 0.015625 0  0.40625 0.015625 0  0.421875 0.015625 0  0.4375 0.015625 0  0.453125 0.015625 0  0.46875 0.015625 0  0.484375 0.015625 0  0.5 0.015625 0  0.515625 0.015625 0  0.53125 0.015625 0  0.546875 0.015625 0  0.5625 0.015625 0  0.578125 0.015625 0  0.59375 0.015625 0  0.609375 0.015625 0  0.625 0.015625 0  0.640625 0.015625 0  0.65625 0.015625 0  0.671875 0.015625 0  0.6875 0.015625 0  0.703125 0.015625 0  0.71875 0.015625 0  0.734375 0.015625 0  0.75 0.015625 0  0.765625 0.015625 0  0.78125 0.015625 0  0.796875 0.015625 0  0.8125 0.015625 0  0.828125 0.015625 0  0.84375 0.015625 0  0.859375 0.015625 0  0.875 0.015625 0  0.890625 0.015625 0  0.90625 0.015625 0  0.921875 0.015625 0  0.9375 0.015625 0  0.953125 0.015625 0  0.96875 0.015625 0  0.984375 0.015625 0  1 0.015625 0  0 0.03125 0  0.015625 0.03125 0  0.03125 0.03125 0  0.046875 0.03125 0  0.0625 0.03125 0  0.078125 0.03125 0  0.09375 0.03125 0  0.109375 0.03125 0  0.125 0.03125 0  0.140625 0.03125 0  0.15625 0.03125 0  0.171875 0.03125 0  0.1875 0.03125 0  0.203125 0.03125 0  0.21875 0.03125 0  0.234375 0.03125 0  0.25 0.03125 0  0.265625 0.03125 0  0.28125 0.03125 0  0.296875 0.03125 0  0.3125 0.03125 0  0.328125 0.03125 0  0.34375 0.03125 0  0.359375 0.03125 0  0.375 0.03125 0  0.390625 0.03125 0  0.40625 0.03125 0  0.421875 0.03125 0  0.4375 0.03125 0  0.453125 0.03125 0  0.46875 0.03125 0  0.484375 0.03125 0  0.5 0.03125 0  0.515625 0.03125 0  0.53125 0.03125 0  0.546875 0.03125 0  0.5625 0.03125 0  0.578125 0.03125 0  0.59375 0.03125 0  0.609375 0.03125 0  0.625 0.03125 0  0.640625 0.03125 0  0.65625 0.03125 0  0.671875 0.03125 0  0.6875 0.03125 0  0.703125 0.03125 0  0.71875 0.03125 0  0.734375 0.03125 0  0.75 0.03125 0  0.765625 0.03125 0  0.78125 0.03125 0  0.796875 0.03125 0  0.8125 0.03125 0  0.828125 0.03125 0  0.84375 0.03125 0  0.859375 0.03125 0  0.875 0.03125 0  0.890625 0.03125 0  0.90625 0.03125 0  0.921875 0.03125 0  0.9375 0.03125 0  0.953125 0.03125 0  0.96875 0.03125 0  0.984375 0.03125 0  1 0.03125 0  0 0.046875 0  0.015625 0.046875 0  0.03125 0.046875 0  0.046875 0.046875 0  0.0625 0.046875 0  0.078125 0.046875 0  0.09375 0.046875 0  0.109375 0.046875 0  0.125 0.046875 0  0.140625 0.046875 0  0.15625 0.046875 0  0.171875 0.046875 0  0.1875 0.046875 0  0.203125 0.046875 0  0.21875 0.046875 0  0.234375 0.046875 0  0.25 0.046875 0  0.265625 0.046875 0  0.28125 0.046875 0  0.296875 0.046875 0  0.3125 0.046875 0  0.328125 0.046875 0  0.34375 0.046875 0  0.359375 0.046875 0  0.375 0.046875 0  0.390625 0.046875 0  0.40625 0.046875 0  0.421875 0.046875 0  0.4375 0.046875 0  0.453125 0.046875 0  0.46875 0.046875 0  0.484375 0.046875 0  0.5 0.046875 0  0.515625 0.046875 0  0.53125 0.046875 0  0.546875 0.046875 0  0.5625 0.046875 0  0.578125 0.046875 0  0.59375 0.046875 0  0.609375 0.046875 0  0.625 0.046875 0  0.640625 0.046875 0  0.65625 0.046875 0  0.671875 0.046875 0  0.6875 0.046875 0  0.703125 0.046875 0  0.71875 0.046875 0  0.734375 0.046875 0  0.75 0.046875 0  0.765625 0.046875 0  0.78125 0.046875 0  0.796875 0.046875 0  0.8125 0.046875 0  0.828125 0.046875 0  0.84375 0.046875 0  0.859375 0.046875 0  0.875 0.046875 0  0.890625 0.046875 0  0.90625 0.046875 0  0.921875 0.046875 0  0.9375 0.046875 0  0.953125 0.046875 0  0.96875 0.046875 0  0.984375 0.046875 0  1 0.046875 0  0 0.0625 0  0.015625 0.0625 0  0.03125 0.0625 0  0.046875 0.0625 0  0.0625 0.0625 0  0.078125 0.0625 0  0.09375 0.0625 0  0.109375 0.0625 0  0.125 0.0625 0  0.140625 0.0625 0  0.15625 0.0625 0  0.171875 0.0625 0  0.1875 0.0625 0  0.203125 0.0625 0  0.21875 0.0625 0  0.234375 0.0625 0  0.25 0.0625 0  0.265625 0.0625 0  0.28125 0.0625 0  0.296875 0.0625 0  0.3125 0.0625 0  0.328125 0.0625 0  0.34375 0.0625 0  0.359375 0.0625 0  0.375 0.0625 0  0.390625 0.0625 0  0.40625 0.0625 0  0.421875 0.0625 0  0.4375 0.0625 0  0.453125 0.0625 0  0.46875 0.0625 0  0.484375 0.0625 0  0.5 0.0625 0  0.515625 0.0625 0  0.53125 0.0625 0  0.546875 0.0625 0  0.5625 0.0625 0  0.578125 0.0625 0  0.59375 0.0625 0  0.609375 0.0625 0  0.625 0.0625 0  0.640625 0.0625 0  0.65625 0.0625 0  0.671875 0.0625 0  0.6875 0.0625 0  0.703125 0.0625 0  0.71875 0.0625 0  0.734375 0.0625 0  0.75 0.0625 0  0.765625 0.0625 0  0.78125 0.0625 0  0.796875 0.0625 0  0.8125 0.0625 0  0.828125 0.0625 0  0.84375 0.0625 0  0.859375 0.0625 0  0.875 0.0625 0  0.890625 0.0625 0  0.90625 0.0625 0  0.921875 0.0625 0  0.9375 0.0625 0  0.953125 0.0625 0  0.96875 0.0625 0  0.984375 0.0625 0  1 0.0625 0  0 0.078125 0  0.015625 0.078125 0  0.03125 0.078125 0  0.046875 0.078125 0  0.0625 0.078125 0  0.078125 0.078125 0  0.09375 0.078125 0  0.109375 0.078125 0  0.125 0.078125 0  0.140625 0.078125 0  0.15625 0.078125 0  0.171875 0.078125 0  0.1875 0.078125 0  0.203125 0.078125 0  0.21875 0.078125 0  0.234375 0.078125 0  0.25 0.078125 0  0.265625 0.078125 0  0.28125 0.078125 0  0.296875 0.078125 0  0.3125 0.078125 0  0.328125 0.078125 0  0.34375 0.078125 0  0.359375 0.078125 0  0.375 0.078125 0  0.390625 0.078125 0  0.40625 0.078125 0  0.421875 0.078125 0  0.4375 0.078125 0  0.453125 0.078125 0  0.46875 0.078125 0  0.484375 0.078125 0  0.5 0.078125 0  0.515625 0.078125 0  0.53125 0.078125 0  0.546875 0.078125 0  0.5625 0.078125 0  0.578125 0.078125 0  0.59375 0.078125 0  0.609375 0.078125 0  0.625 0.078125 0  0.640625 0.078125 0  0.65625 0.078125 0  0.671875 0.078125 0  0.6875 0.078125 0  0.703125 0.078125 0  0.71875 0.078125 0  0.734375 0.078125 0  0.75 0.078125 0  0.765625 0.078125 0  0.78125 0.078125 0  0.796875 0.078125 0  0.8125 0.078125 0  0.828125 0.078125 0  0.84375 0.078125 0  0.859375 0.078125 0  0.875 0.078125 0  0.890625 0.078125 0  0.90625 0.078125 0  0.921875 0.078125 0  0.9375 0.078125 0  0.953125 0.078125 0  0.96875 0.078125 0  0.984375 0.078125 0  1 0.078125 0  0 0.09375 0  0.015625 0.09375 0  0.03125 0.09375 0  0.046875 0.09375 0  0.0625 0.09375 0  0.078125 0.09375 0  0.09375 0.09375 0  0.109375 0.09375 0  0.125 0.09375 0  0.140625 0.09375 0  0.15625 0.09375 0  0.171875 0.09375 0  0.1875 0.09375 0  0.203125 0.09375 0  0.21875 0.09375 0  0.234375 0.09375 0  0.25 0.09375 0  0.265625 0.09375 0  0.28125 0.09375 0  0.296875 0.09375 0  0.3125 0.09375 0  0.328125 0.09375 0  0.34375 0.09375 0  0.359375 0.09375 0  0.375 0.09375 0  0.390625 0.09375 0  0.40625 0.09375 0  0.421875 0.09375 0  0.4375 0.09375 0  0.453125 0.09375 0  0.46875 0.09375 0  0.484375 0.09375 0  0.5 0.09375 0  0.515625 0.09375 0  0.53125 0.09375 0  0.546875 0.09375 0  0.5625 0.09375 0  0.578125 0.09375 0  0.59375 0.09375 0  0.609375 0.09375 0  0.625 0.09375 0  0.640625 0.09375 0  0.65625 0.09375 0  0.671875 0.09375 0  0.6875 0.09375 0  0.703125 0.09375 0  0.71875 0.09375 0  0.734375 0.09375 0  0.75 0.09375 0  0.765625 0.09375 0  0.78125 0.09375 0  0.796875 0.09375 0  0.8125 0.09375 0  0.828125 0.09375 0  0.84375 0.09375 0  0.859375 0.09375 0  0.875 0.09375 0  0.890625 0.09375 0  0.90625 0.09375 0  0.921875 0.09375 0  0.9375 0.09375 0  0.953125 0.09375 0  0.96875 0.09375 0  0.984375 0.09375 0  1 0.09375 0  0 0.109375 0  0.015625 0.109375 0  0.03125 0.109375 0  0.046875 0.109375 0  0.0625 0.109375 0  0.078125 0.109375 0  0.09375 0.109375 0  0.109375 0.109375 0  0.125 0.109375 0  0.140625 0.109375 0  0.15625 0.109375 0  0.171875 0.109375 0  0.1875 0.109375 0  0.203125 0.109375 0  0.21875 0.109375 0  0.234375 0.109375 0  0.25 0.109375 0  0.265625 0.109375 0  0.28125 0.109375 0  0.296875 0.109375 0  0.3125 0.109375 0  0.328125 0.109375 0  0.34375 0.109375 0  0.359375 0.109375 0  0.375 0.109375 0  0.390625 0.109375 0  0.40625 0.109375 0  0.421875 0.109375 0  0.4375 0.109375 0  0.453125 0.109375 0  0.46875 0.109375 0  0.484375 0.109375 0  0.5 0.109375 0  0.515625 0.109375 0  0.53125 0.109375 0  0.546875 0.109375 0  0.5625 0.109375 0  0.578125 0.109375 0  0.59375 0.109375 0  0.609375 0.109375 0  0.625 0.109375 0  0.640625 0.109375 0  0.65625 0.109375 0  0.671875 0.109375 0  0.6875 0.109375 0  0.703125 0.109375 0  0.71875 0.109375 0  0.734375 0.109375 0  0.75 0.109375 0  0.765625 0.109375 0  0.78125 0.109375 0  0.796875 0.109375 0  0.8125 0.109375 0  0.828125 0.109375 0  0.84375 0.109375 0  0.859375 0.109375 0  0.875 0.109375 0  0.890625 0.109375 0  0.90625 0.109375 0  0.921875 0.109375 0  0.9375 0.109375 0  0.953125 0.109375 0  0.96875 0.109375 0  0.984375 0.109375 0  1 0.109375 0  0 0.125 0  0.015625 0.125 0  0.03125 0.125 0  0.046875 0.125 0  0.0625 0.125 0  0.078125 0.125 0  0.09375 0.125 0  0.109375 0.125 0  0.125 0.12
[...]
<PointData  Scalars="F1_2"> 
<DataArray  type="Float64"  Name="F1_2"  format="ascii">1.0310622470775444e+01  1.0311571610227773e+01  1.0312140034116180e+01  1.0312328962712204e+01  1.0312139651526007e+01  1.0311573391306329e+01  1.0310631508040499e+01  1.0309315362954438e+01  1.0307626352512656e+01  1.0305565908418265e+01  1.0303135497612987e+01  1.0300336622277152e+01  1.0297170819829596e+01  1.0293639662927834e+01  1.0289744759467947e+01  1.0285487752584604e+01  1.0280870320651092e+01  1.0275894177279275e+01  1.0270561071319596e+01  1.0264872786861114e+01  1.0258831143231459e+01  1.0252437994996885e+01  1.0245783540671047e+01  1.0238246453916952e+01  1.0229548185276725e+01  1.0219627091151210e+01  1.0208468550165312e+01  1.0196079166333387e+01  1.0182469414824997e+01  1.0167644730331132e+01  1.0151605038030899e+01  1.0134352727158582e+01  1.0115909067171131e+01  1.0096263688833792e+01  1.0075426682532667e+01  1.0053403301651342e+01  1.0030198831603773e+01  1.0005818589834233e+01  9.9802679258173086e+00  9.9535522210579845e+00  9.9256768890915481e+00  9.8966473754836777e+00  9.8664691578303625e+00  9.8351477457580003e+00  9.8026886809232323e+00  9.7690975370131081e+00  9.7343799197450398e+00  9.6985414668667786e+00  9.6615878481564046e+00  9.6235247654223492e+00  9.5843579525033906e+00  9.5440931752686549e+00  9.5027362316176234e+00  9.4602929514801257e+00  9.4167691968163574e+00  9.3721708616167785e+00  9.3265038719022897e+00  9.2797741857240919e+00  9.2319877931637500e+00  9.1831507163331825e+00  9.1332690093746347e+00  9.0823487584606930e+00  9.0303960817943025e+00  8.9774171296087868e+00  8.9234180841677784e+00  1.0351237141080439e+01  1.0352144144162802e+01  1.0352671768473689e+01  1.0352821234368845e+01  1.0352593797439852e+01  1.0351990748514122e+01  1.0351013413654925e+01  1.0349663154161345e+01  1.0347941366568284e+01  1.0345849482646518e+01  1.0343388969402621e+01  1.0340561329079041e+01  1.0337368099153974e+01  1.0333810852341529e+01  1.0329891196591618e+01  1.0325610775090002e+01  1.0320971266258262e+01  1.0315974383753820e+01  1.0310621876469916e+01  1.0304915528535640e+01  1.0298857159315899e+01  1.0292448623411481e+01  1.0285780119367722e+01  1.0278230320876654e+01  1.0269520678506627e+01  1.0259589548681980e+01  1.0248422310048301e+01  1.0236025566637863e+01  1.0222409793635421e+01  1.0207580425744425e+01  1.0191537388153634e+01  1.0174283070104227e+01  1.0155838741057293e+01  1.0136194031779409e+01  1.0115359032655391e+01  1.0093338997064649e+01  1.0070139210414219e+01  1.0045764990138697e+01  1.0020221685700285e+01  9.9935146785887525e+00  9.9656493823214660e+00  9.9366312424433687e+00  9.9064657365270321e+00  9.8751583741725835e+00  9.8427146970076826e+00  9.8091402786876607e+00  9.7744407248953884e+00  9.7386216733413455e+00  9.7016887937635747e+00  9.6636477879277383e+00  9.6245043896270541e+00  9.5842643646823298e+00  9.5429335109419924e+00  9.5005176582820123e+00  9.4570226686059886e+00  9.4124544358450368e+00  9.3668188859579331e+00  9.3201219769310129e+00  9.2723696987781867e+00  9.2235680735409709e+00  9.1737231552884495e+00  9.1228410301173142e+00  9.0709278161518085e+00  9.0179896635438208e+00  8.9640327544727771e+00  1.0391020698987221e+01  1.0391887307097548e+01  1.0392375816206133e+01  1.0392487446921342e+01  1.0392223455079094e+01  1.0391585131742861e+01  1.0390573803203653e+01  1.0389190830980034e+01  1.0387437611818129e+01  1.0385315577691598e+01  1.0382826195801675e+01  1.0379970968577149e+01  1.0376751433674295e+01  1.0373169163977007e+01  1.0369225767596708e+01  1.0364922887872373e+01  1.0360262203370535e+01  1.0355245427885267e+01  1.0349874310438194e+01  1.0344150635278478e+01  1.0338076221882856e+01  1.0331652924955625e+01  1.0324970943137391e+01  1.0317408950207147e+01  1.0308688396811915e+01  1.0298747639446434e+01  1.0287572056818419e+01  1.0275168253013991e+01  1.0261546703263441e+01  1.0246712842307483e+01  1.0230666595363873e+01  1.0213410351694492e+01  1.0194965380772853e+01  1.0175321313369675e+01  1.0154488239865623e+01  1.0132471413627696e+01  1.0109276120042223e+01  1.0084907676514824e+01  1.0059371432470414e+01  1.0032672769353216e+01  1.0004817100626759e+01  9.9758098717738761e+00  9.9456565602967082e+00  9.9143626757167311e+00  9.8819337595746291e+00  9.8483753854304759e+00  9.8136931588636411e+00  9.7778927174727794e+00  9.7409797308758534e+00  9.7029599007101179e+00  9.6638389606321500e+00  9.6236226763178294e+00  9.5823168454623264e+00  9.5399272977801299e+00  9.4964598950050405e+00  9.4519205308901082e+00  9.4063151312077569e+00  9.3596496537496918e+00  9.3119300883269069e+00  9.2631624567697148e+00  9.2133528129277131e+00  9.1625072426698271e+00  9.1106318638842705e+00  9.0577328264785812e+00  9.0038163123795805e+00  1.0429973144495788e+01  1.0430801099031985e+01  1.0431252177313493e+01  1.0431327600369709e+01  1.0431028624443760e+01  1.0430356540992532e+01  1.0429312676686655e+01  1.0427898393410484e+01  1.0426115088262142e+01  1.0423964193553495e+01  1.0421447176810149e+01  1.0418565540771477e+01  1.0415320823390582e+01  1.0411714597834305e+01  1.0407748472483240e+01  1.0403424090931752e+01  1.0398743131987928e+01  1.0393707309673612e+01  1.0388318373224394e+01  1.0382578107089595e+01  1.0376488330932290e+01  1.0370050899629319e+01  1.0363356011980054e+01  1.0355782341908416e+01  1.0347051340192586e+01  1.0337101363444592e+01  1.0325917790475717e+01  1.0313507225461793e+01  1.0299880143709039e+01  1.0285041980020283e+01  1.0268992659661599e+01  1.0251734571929369e+01  1.0233288986317801e+01  1.0213645533604549e+01  1.0192814304163347e+01  1.0170800551340509e+01  1.0147609560487828e+01  1.0123246648962626e+01  1.0097717166127708e+01  1.0071026493351368e+01  1.0043180044007418e+01  1.0014183263475154e+01  9.9840416291393765e+00  9.9527606503904220e+00  9.9203458686240555e+00  9.8868028572415874e+00  9.8521372216498424e+00  9.8163545992611212e+00  9.7794606594932425e+00  9.7414611037694954e+00  9.7023616655186871e+00  9.6621681101751218e+00  9.6208862351786166e+00  9.5785218699744732e+00  9.5350808760135042e+00  9.4905691467519944e+00  9.4449926076517734e+00  9.3983572161801412e+00  9.3506689618099106e+00  9.3019338660193895e+00  9.2521579822923847e+00  9.2013473961182015e+00  9.1495082249916440e+00  9.0966466184130237e+00  9.0427687578881546e+00  1.0468094477606154e+01  1.0468885519966120e+01  1.0469300851795770e+01  1.0469341694713936e+01  1.0469009305533852e+01  1.0468304976263159e+01  1.0467230034103942e+01  1.0465785841452695e+01  1.0463973795900333e+01  1.0461795330232196e+01  1.0459251912428034e+01  1.0456345045662047e+01  1.0453076268302835e+01  1.0449447153913399e+01  1.0445459311251216e+01  1.0441114384268138e+01  1.0436414052110443e+01  1.0431360029118872e+01  1.0425954064828533e+01  1.0420197943968986e+01  1.0414093486464187e+01  1.0407642547432566e+01  1.0400935325895707e+01  1.0393350495980467e+01  1.0384609508648611e+01  1.0374650720676460e+01  1.0363459511020197e+01  1.0351042483981276e+01  1.0337410114972226e+01  1.0322567838882833e+01  1.0306515581046806e+01  1.0289255730808856e+01  1.0270809557692155e+01  1.0251166692484031e+01  1.0230337225548558e+01  1.0208326410203053e+01  1.0185139531751021e+01  1.0160781907482113e+01  1.0135258886672172e+01  1.0108575850583220e+01  1.0080738212463443e+01  1.0051751417547205e+01  1.0021620943055037e+01  9.9903522981936561e+00  9.9579510241559550e+00  9.9244226941209792e+00  9.8897729132539904e+00  9.8540073187063904e+00  9.8171315796157597e+00  9.7791513971058794e+00  9.7400725042866654e+00  9.6999006662542318e+00  9.6586416800908665e+00  9.6163013748650421e+00  9.5728856116313956e+00  9.5284002834307024e+00  9.4828513152899667e+00  9.4362446642223627e+00  9.3885863192272083e+00  9.3398823012900163e+00  9.2901386633824679e+00  9.2393614904624286e+00  9.1875568994739236e+00  9.1347310393471624e+00  9.0808900909985226e+00  1.0505384698318318e+01  1.0506140569899957e+01  1.0506521839652981e+01  1.0506529729954032e+01  1.0506165498349361e+01  1.0505430437554745e+01  1.0504325875455530e+01  1.0502853175106683e+01  1.0501013734732707e+01  1.0498808987727704e+01  1.0496240402655339e+01  1.0493309483248856e+01  1.0490017768411054e+01  1.0486366832214316e+01  1.0482358283900627e+01  1.0477993767881520e+01  1.0473274963738097e+01  1.0468203586221037e+01  1.0462781385250612e+01  1.0457010145916652e+01  1.0450891688478572e+01  1.0444427868365356e+01  1.0437708884884362e+01  1.0430113412423303e+01  1.0421362902180006e+01  1.0411395711141999e+01  1.0400197218451835e+01  1.0387774028572437e+01  1.0374136617053004e+01  1.0359290418895137e+01  1.0343235359519511e+01  1.0325973828332952e+01  1.0307527094895908e+01  1.0287884790008132e+01  1.0267057004021266e+01  1.0245048990215356e+01  1.0221866033831791e+01  1.0197513452073279e+01  1.0171996594103815e+01  1.0145320841048775e+01  1.0117491605994843e+01  1.0088514333990030e+01  1.0058394502043676e+01  1.0027137619126457e+01  9.9947492261703399e+00  9.9612348960686585e+00  9.9266002336760675e+00  9.8908508758085496e+00  9.8539924912434032e+00  9.8160307807192630e+00  9.7769714769360814e+00  9.7368203445551487e+00  9.6955831801990868e+00  9.6532658124518385e+00  9.6098741018586935e+00  9.5654139409262200e+00  9.5198912541223457e+00  9.4733119978763387e+00  9.4256821605787877e+00  9.3770077625815880e+00  9.3272948561979767e+00  9.2765495257025190e+00  9.2247778873311166e+00  9.1719860892809884e+00  9.1181803117106845e+00  1.0541843806632281e+01  1.0542566248833491e+01  1.0542915140885100e+01  1.0542891706089989e+01  1.0542497202890274e+01  1.0541732924867251e+01  1.0540600200741400e+01  1.0539100394372444e+01  1.0537234904759272e+01  1.0535005166040037e+01  1.0532412647492064e+01  1.0529458853531892e+01  1.0526145323715239e+01  1.0522473632737050e+01  1.0518445390431472e+01  1.0514062241771883e+01  1.0509325866870848e+01  1.0504237980980108e+01  1.0498800334490637e+01  1.0493014712932613e+01  1.0486882936975430e+01  1.0480406862427694e+01  1.0473676688945993e+01  1.0466071091236918e+01  1.0457311520786782e+01  1.0447336334841244e+01  1.0436130912770626e+01  1.0423701859235280e+01  1.0410059649951378e+01  1.0395209720057196e+01  1.0379151995079710e+01  1.0361888864501664e+01  1.0343441597929072e+01  1.0323799826176849e+01  1.0302973639581468e+01  1.0280968291377414e+01  1.0257789066730147e+01  1.0233441282736100e+01  1.0207930288422615e+01  1.0181261464748037e+01  1.0153440224601621e+01  1.0124472012803636e+01  1.0094362306105307e+01  1.0063116613188800e+01  1.0030740474667203e+01  9.9972394630846093e+00  9.9626191829160753e+00  9.9268852705676043e+00  9.8900433943761552e+00  9.8520992546096409e+00  9.8130585834669386e+00  9.7729271450778796e+00  9.7317107355032668e+00  9.6894151827348729e+00  9.6460463466954209e+00  9.6016101192385452e+00  9.5561124241488997e+00  9.5095592171420815e+00  9.4619564858646470e+00  9.4133102498941099e+00  9.3636265607389060e+00  9.3129115018384887e+00  9.2611711885632388e+00  9.2084117682145195e+00  9.1546394200246439e+00  1.0577471802548040e+01  1.0578162556766726e+01  1.0578480755492141e+01  1.0578427623121819e+01  1.0578004419156610e+01  1.0577212438200695e+01  1.0576053009961553e+01  1.0574527499249951e+01  1.0572637305980026e+01  1.0570383865169187e+01  1.0567768646938205e+01  1.0564793156511156e+01  1.0561458934215386e+01  1.0557767555481583e+01  1.0553720630843760e+01  1.0549319805939255e+01  1.0544566761508706e+01  1.0539463213396065e+01  1.0534010912548592e+01  1.0528211645016862e+01  1.0522067231954777e+01  1.0515579529619590e+01  1.0508838738080614e+01  1.0501223532421314e+01  1.0492455364468924e+01  1.0482472591774187e+01  1.0471260593976583e+01  1.0458825975969770e+01  1.0445179213667325e+01  1.0430325742369007e+01  1.0414265487727409e+01  1.0397000839314993e+01  1.0378553066791632e+01  1.0358911800990180e+01  1.0338087132229159e+01  1.0316084313689219e+01  1.0292908630446092e+01  1.0268565399470592e+01  1.0243059969628586e+01  1.0216397721680972e+01  1.0188584068283767e+01  1.0159624453988034e+01  1.0129524355239937e+01  1.0098289280380687e+01  1.0065924769646545e+01  1.0032436395168848e+01  9.9978297609740245e+00  9.9621105029835615e+00  9.9252842890140158e+00  9.8873568187770076e+00  9.8483338238792211e+00  9.8082210678224158e+00  9.7670243460034118e+00  9.7247494857141348e+00  9.6814023461415584e+00  9.6369888183676888e+00  9.5915148253696429e+00  9.5449863220195947e+00  9.4974092950847915e+00  9.4487897632275519e+00  9.3991337770052450e+00  9.3484474188703217e+00  9.2967368031702922e+00  9.2440080761477557e+00  9.1902674159403936e+00  1.0612268686065580e+01  1.0612929493699651e+01  1.0613218683474104e+01  1.0613137481049513e+01  1.0612687147148371e+01  1.0611868977555085e+01  1.0610684303115965e+01  1.0609134489739217e+01  1.0607220938394939e+01  1.0604945085115158e+01  1.0602308400993774e+01  1.0599312392186647e+01  1.0595958599911487e+01  1.0592248600447927e+01  1.0588184005137487e+01  1.0583766460383627e+01  1.0578997647651688e+01  1.0573879283468917e+01  1.0568413119424468e+01  1.0562600942169379e+01  1.0556444573416611e+01  1.0549945869941038e+01  1.0543195032288232e+01  1.0535570735976480e+01  1.0526794433226444e+01  1.0516804481940822e+01  1.0505586262069707e+01  1.0493146378775929e+01  1.0479495308200846e+01  1.0464638485830557e+01  1.0448575837462597e+01  1.0431309752772950e+01  1.0412861501483603e+01  1.0393220714448116e+01  1.0372397481964336e+01  1.0350397057150776e+01  1.0327224724979622e+01  1.0302885802276759e+01  1.0277385637721697e+01  1.0250729611847607e+01  1.0222923137041276e+01  1.0193971657543216e+01  1.0163880649447556e+01  1.0132655620702135e+01  1.0100302111108361e+01  1.0066825692321363e+01  1.0032231967849906e+01  9.9965265730564230e+00  9.9597151751569974e+00  9.9218034732213720e+00  9.8827971981729377e+00  9.8427021127887571e+00  9.8015240116995237e+00  9.7592687213896241e+00  9.7159421001971111e+00  9.6715500383136419e+00  9.6260984577845630e+00  9.5795933125088713e+00  9.5320405882392230e+00  9.4834463025819424e+00  9.4338165049969973e+00  9.3831572767980109e+00  9.3314747311522623e+00  9.2787750130806970e+00  9.2250642994579426e+00  1.0646234457184901e+01  1.0646867059632276e+01  1.0647128924830980e+01  1.0647021279873067e+01  1.0646545386865549e+01  1.0645702542930426e+01  1.0644494080204675e+01  1.0642921365840241e+01  1.0640985802004037e+01  1.0638688825877923e+01  1.0636031909658755e+01  1.0633016560558357e+01  1.0629644320803550e+01  1.0625916767636067e+01  1.0621835513312650e+01  1.0617402205104996e+01  1.0612618525299782e+01  1.0607486191198671e+01  1.0602006955118272e+01  1.0596182604390169e+01  1.0590014961360922e+01  1.0583505883392043e+01  1.0576745571568843e+01  1.0569112701902426e+01  1.0560328727059320e+01  1.0550332005341154e+01  1.0539107917050007e+01  1.0526663067653764e+01  1.0513007933551940e+01  1.0498147950441847e+01  1.0482083044285258e+01  1.0464815604875511e+01  1.0446366902004975e+01  1.0426726566550670e+01  1.0405904688787007e+01  1.0383906521762073e+01  1.0360737350330737e+01  1.0336402491154598e+01  1.0310907292701980e+01  1.0284257135247916e+01  1.0256457430874161e+01  1.0227513623469173e+01  1.0197431188728174e+01  1.0166215634153129e+01  1.0133872499052663e+01  1.0100407354542160e+01  1.0065825803543730e+01  1.0030133480786194e+01  9.9933360528051036e+00  9.9554392179427342e+00  9.9164487063480902e+00  9.8763702799768982e+00  9.8352097325916024e+00  9.7929728897613657e+00  9.7496656088620863e+00  9.7052937790764169e+00  9.6598633213936687e+00  9.6133801886099146e+00  9.5658503653279414e+00  9.5172798679572725e+00  9.4676747447141594e+00  9.4170410756215510e+00  9.3653849725091405e+00  9.3127125790133363e+00  9.2590300705772748e+00  1.0679369115906024e+01  1.0679975254564610e+01  1.0680211479562786e+01  1.0680079019592480e+01  1.0679579138308137e+01  1.0678713134326710e+01  1.0677482341227680e+01  1.0675888127553041e+01  1.0673931896807307e+01  1.0671615087457504e+01  1.0668939172933143e+01  1.0665905661626315e+01  1.0662516096891576e+01  1.0658772057046020e+01  1.0654675155369242e+01  1.0650227040103353e+01  1.0645429394453009e+01  1.0640283936585343e+01  1.0634792419630026e+01  1.0628956631679250e+01  1.0622778395787700e+01  1.0616259569972605e+01  1.0609490355922450e+01  1.0601849430199167e+01  1.0593058245967566e+01  1.0583055161975182e+01  1.0571825558917464e+01  1.0559376042603287e+01  1.0545717089720632e+01  1.0530854136202887e+01  1.0514787108195410e+01  1.0497518395622684e+01  1.0479069268355753e+01  1.0459429357297850e+01  1.0438608752697164e+01  1.0416612707523122e+01  1.0393446506499433e+01  1.0369115466104114e+01  1.0343624934569432e+01  1.0316980291881926e+01  1.0289186949782398e+01  1.0260250351765901e+01  1.0230175973081787e+01  1.0198969320733681e+01  1.0166635933479444e+01  1.0133181381831241e+01  1.0098611268055480e+01  1.0062931226172855e+01  1.0026146921958325e+01  9.9882640529411013e+00  9.9492883484046803e+00  9.9092255693868552e+00  9.8680815086796336e+00  9.8258619908293312e+00  9.7825728721364982e+00  9.7382200406560031e+00  9.6928094161969618e+00  9.6463469503227230e+00  9.5988386263509433e+00  9.5502904593535582e+00  9.5007084961567383e+00  9.4500988153409615e+00  9.3984675272409319e+00  9.3458207739456665e+00  9.2921647292983973e+00  1.0711672662228978e+01  1.0712254078496677e+01  1.0712466347669533e+01  1.0712310700207764e+01  1.0711788401476149e+01  1.0710900751743937e+01  1.0709649086184978e+01  1.0708034774877621e+01  1.0706059222804781e+01  1.0703723869853903e+01  1.0701030190816990e+01  1.0697979695390522e+01  1.0694573928175599e+01  1.0690814468677809e+01  1.0686702931307288e+01  1.0682240965378725e+01  1.0677430255111346e+01  1.0672272519628917e+01  1.0666769512959718e+01  1.0660923024036615e+01  1.0654734876696958e+01  1.0648206929682702e+01  1.0641429385349085e+01  1.0633780920866705e+01  1.0624982989951196e+01  1.0614973951842890e+01  1.0603739187672090e+01  1.0591285303624481e+01  1.0577622776706935e+01  1.0562757043113695e+01  1.0546688029193071e+01  1.0529418125014480e+01  1.0510968600535904e+01  1.0491329086689683e+01  1.0470509673694840e+01  1.0448515614433932e+01  1.0425352193485724e+01  1.0401024727125316e+01  1.0375538563324074e+01  1.0348899081749654e+01  1.0321111693766021e+01  1.0292181842433406e+01  1.0262115002508388e+01  1.0230916680443791e+01  1.0198592414388736e+01  1.0165147774188616e+01  1.0130588361385179e+01  1.0094919809216421e+01  1.0058147782616667e+01  1.0020277978216464e+01  9.9813161243427260e+00  9.9412679810186102e+00  9.9001393399636193e+00  9.8579360245934939e+00  9.8146638900203484e+00  9.7703288230524254e+00  9.7249367421944228e+00  9.6784935976472823e+00  9.6310053713082340e+00  9.5824780767707871e+00  9.5329177593247518e+00  9.4823304959562513e+00  9.4307223953476580e+00  9.3780995978776858e+00  9.3244682756213155e+00  1.0743145096153690e+01  1.0743703531428395e+01  1.0743893529151176e+01  1.0743716321718916e+01  1.0743173176369568e+01  1.0742265395182109e+01  1.0740994315076552e+01  1.0739361307813956e+01  1.0737367779996429e+01  1.0735015173067126e+01  1.0732304963310224e+01  1.0729238661850953e+01  1.0725817814655539e+01  1.0722044002531378e+01  1.0717918841126757e+01  1.0713443980931093e+01  1.0708621107274807e+01  1.0703451940329389e+01  1.0697938235107356e+01  1.0692081781462253e+01  1.0685884404088705e+01  1.0679347962522350e+01  1.0672562659848683e+01  1.0664907173904998e+01  1.0656102959010196e+01  1.0646088374944302e+01  1.0634848803313883e+01  1.0622390850717347e+01  1.0608724994510805e+01  1.0593856671174251e+01  1.0577785807278227e+01  1.0560514793050901e+01  1.0542064898545508e+01  1.0522425754726081e+01  1.0501607451779984e+01  1.0479615242494477e+01  1.0456454411289601e+01  1.0432130274218190e+01  1.0406648178965865e+01  1.0380013504851071e+01  1.0352231662825014e+01  1.0323308095471718e+01  1.0293248277007994e+01  1.0262057713283458e+01  1.0229741941780464e+01  1.0196306531614262e+01  1.0161757083532812e+01  1.0126099229916907e+01  1.0089338634780113e+01  1.0051480993768825e