<?xml version="1.0"?>
<VTKFile type="UnstructuredGrid"  version="0.1"  >
<UnstructuredGrid>
<Piece  NumberOfPoints="4225" NumberOfCells="8192">
<Points>
<DataArray  type="Float64"  NumberOfComponents="3"  format="ascii">0 0 0  0.015625 0 0  0.03125 0 0  0.046875 0 0  0.0625 0 0  0.078125 0 0  0.09375 0 0  0.109375 0 0  0.125 0 0  0.140625 0 0  0.15625 0 0  0.171875 0 0  0.1875 0 0  0.203125 0 0  0.21875 0 0  0.234375 0 0  0.25 0 0  0.265625 0 0  0.28125 0 0  0.296875 0 0  0.3125 0 0  0.328125 0 0  0.34375 0 0  0.359375 0 0  0.375 0 0  0.390625 0 0  0.40625 0 0  0.421875 0 0  0.4375 0 0  0.453125 0 0  0.46875 0 0  0.484375 0 0  0.5 0 0  0.515625 0 0  0.53125 0 0  0.546875 0 0  0.5625 0 0  0.578125 0 0  0.59375 0 0  0.609375 0 0  0.625 0 0  0.640625 0 0  0.65625 0 0  0.671875 0 0  0.6875 0 0  0.703125 0 0  0.71875 0 0  0.734375 0 0  0.75 0 0  0.765625 0 0  0.78125 0 0  0.796875 0 0  0.8125 0 0  0.828125 0 0  0.84375 0 0  0.859375 0 0  0.875 0 0  0.890625 0 0  0.90625 0 0  0.921875 0 0  0.9375 0 0  0.953125 0 0  0.96875 0 0  0.984375 0 0  1 0 0  0 0.015625 0  0.015625 0.015625 0  0.03125 0.015625 0  0.046875 0.015625 0  0.0625 0.015625 0  0.078125 0.015625 0  0.09375 0.015625 0  0.109375 0.015625 0  0.125 0.015625 0  0.140625 0.015625 0  0.15625 0.015625 0  0.171875 0.015625 0  0.1875 0.015625 0  0.203125 0.015625 0  0.21875 0.015625 0  0.234375 0.015625 0  0.25 0.015625 0  0.265625 0.015625 0  0.28125 0.015625 0  0.296875 0.015625 0  0.3125 0.015625 0  0.328125 0.015625 0  0.34375 0.015625 0  0.359375 0.015625 0  0.375 0.015625 0  0.390625 0.015625 0  0.40625 0.015625 0  0.421875 0.015625 0  0.4375 0.015625 0  0.453125 0.015625 0  0.46875 0.015625 0  0.484375 0.015625 0  0.5 0.015625 0  0.515625 0.015625 0  0.53125 0.015625 0  0.546875 0.015625 0  0.5625 0.015625 0  0.578125 0.015625 0  0.59375 0.015625 0  0.609375 0.015625 0  0.625 0.015625 0  0.640625 0.015625 0  0.65625 0.015625 0  0.671875 0.015625 0  0.6875 0.015625 0  0.703125 0.015625 0  0.71875 0.015625 0  0.734375 0.015625 0  0.75 0.015625 0  0.765625 0.015625 0  0.78125 0.015625 0  0.796875 0.015625 0  0.8125 0.015625 0  0.828125 0.015625 0  0.84375 0.015625 0  0.859375 0.015625 0  0.875 0.015625 0  0.890625 0.015625 0  0.90625 0.015625 0  0.921875 0.015625 0  0.9375 0.015625 0  0.953125 0.015625 0  0.96875 0.015625 0  0.984375 0.015625 0  1 0.015625 0  0 0.03125 0  0.015625 0.03125 0  0.03125 0.03125 0  0.046875 0.03125 0  0.0625 0.03125 0  0.078125 0.03125 0  0.09375 0.03125 0  0.109375 0.03125 0  0.125 0.03125 0  0.140625 0.03125 0  0.15625 0.03125 0  0.171875 0.03125 0  0.1875 0.03125 0  0.203125 0.03125 0  0.21875 0.03125 0  0.234375 0.03125 0  0.25 0.03125 0  0.265625 0.03125 0  0.28125 0.03125 0  0.296875 0.03125 0  0.3125 0.03125 0  0.328125 0.03125 0  0.34375 0.03125 0  0.359375 0.03125 0  0.375 0.03125 0  0.390625 0.03125 0  0.40625 0.03125 0  0.421875 0.03125 0  0.4375 0.03125 0  0.453125 0.03125 0  0.46875 0.03125 0  0.484375 0.03125 0  0.5 0.03125 0  0.515625 0.03125 0  0.53125 0.03125 0  0.546875 0.03125 0  0.5625 0.03125 0  0.578125 0.03125 0  0.59375 0.03125 0  0.609375 0.03125 0  0.625 0.03125 0  0.640625 0.03125 0  0.65625 0.03125 0  0.671875 0.03125 0  0.6875 0.03125 0  0.703125 0.03125 0  0.71875 0.03125 0  0.734375 0.03125 0  0.75 0.03125 0  0.765625 0.03125 0  0.78125 0.03125 0  0.796875 0.03125 0  0.8125 0.03125 0  0.828125 0.03125 0  0.84375 0.03125 0  0.859375 0.03125 0  0.875 0.03125 0  0.890625 0.03125 0  0.90625 0.03125 0  0.921875 0.03125 0  0.9375 0.03125 0  0.953125 0.03125 0  0.96875 0.03125 0  0.984375 0.03125 0  1 0.03125 0  0 0.046875 0  0.015625 0.046875 0  0.03125 0.046875 0  0.046875 0.046875 0  0.0625 0.046875 0  0.078125 0.046875 0  0.09375 0.046875 0  0.109375 0.046875 0  0.125 0.046875 0  0.140625 0.046875 0  0.15625 0.046875 0  0.171875 0.046875 0  0.1875 0.046875 0  0.203125 0.046875 0  0.21875 0.046875 0  0.234375 0.046875 0  0.25 0.046875 0  0.265625 0.046875 0  0.28125 0.046875 0  0.296875 0.046875 0  0.3125 0.046875 0  0.328125 0.046875 0  0.34375 0.046875 0  0.359375 0.046875 0  0.375 0.046875 0  0.390625 0.046875 0  0.40625 0.046875 0  0.421875 0.046875 0  0.4375 0.046875 0  0.453125 0.046875 0  0.46875 0.046875 0  0.484375 0.046875 0  0.5 0.046875 0  0.515625 0.046875 0  0.53125 0.046875 0  0.546875 0.046875 0  0.5625 0.046875 0  0.578125 0.046875 0  0.59375 0.046875 0  0.609375 0.046875 0  0.625 0.046875 0  0.640625 0.046875 0  0.65625 0.046875 0  0.671875 0.046875 0  0.6875 0.046875 0  0.703125 0.046875 0  0.71875 0.046875 0  0.734375 0.046875 0  0.75 0.046875 0  0.765625 0.046875 0  0.78125 0.046875 0  0.796875 0.046875 0  0.8125 0.046875 0  0.828125 0.046875 0  0.84375 0.046875 0  0.859375 0.046875 0  0.875 0.046875 0  0.890625 0.046875 0  0.90625 0.046875 0  0.921875 0.046875 0  0.9375 0.046875 0  0.953125 0.046875 0  0.96875 0.046875 0  0.984375 0.046875 0  1 0.046875 0  0 0.0625 0  0.015625 0.0625 0  0.03125 0.0625 0  0.046875 0.0625 0  0.0625 0.0625 0  0.078125 0.0625 0  0.09375 0.0625 0  0.109375 0.0625 0  0.125 0.0625 0  0.140625 0.0625 0  0.15625 0.0625 0  0.171875 0.0625 0  0.1875 0.0625 0  0.203125 0.0625 0  0.21875 0.0625 0  0.234375 0.0625 0  0.25 0.0625 0  0.265625 0.0625 0  0.28125 0.0625 0  0.296875 0.0625 0  0.3125 0.0625 0  0.328125 0.0625 0  0.34375 0.0625 0  0.359375 0.0625 0  0.375 0.0625 0  0.390625 0.0625 0  0.40625 0.0625 0  0.421875 0.0625 0  0.4375 0.0625 0  0.453125 0.0625 0  0.46875 0.0625 0  0.484375 0.0625 0  0.5 0.0625 0  0.515625 0.0625 0  0.53125 0.0625 0  0.546875 0.0625 0  0.5625 0.0625 0  0.578125 0.0625 0  0.59375 0.0625 0  0.609375 0.0625 0  0.625 0.0625 0  0.640625 0.0625 0  0.65625 0.0625 0  0.671875 0.0625 0  0.6875 0.0625 0  0.703125 0.0625 0  0.71875 0.0625 0  0.734375 0.0625 0  0.75 0.0625 0  0.765625 0.0625 0  0.78125 0.0625 0  0.796875 0.0625 0  0.8125 0.0625 0  0.828125 0.0625 0  0.84375 0.0625 0  0.859375 0.0625 0  0.875 0.0625 0  0.890625 0.0625 0  0.90625 0.0625 0  0.921875 0.0625 0  0.9375 0.0625 0  0.953125 0.0625 0  0.96875 0.0625 0  0.984375 0.0625 0  1 0.0625 0  0 0.078125 0  0.015625 0.078125 0  0.03125 0.078125 0  0.046875 0.078125 0  0.0625 0.078125 0  0.078125 0.078125 0  0.09375 0.078125 0  0.109375 0.078125 0  0.125 0.078125 0  0.140625 0.078125 0  0.15625 0.078125 0  0.171875 0.078125 0  0.1875 0.078125 0  0.203125 0.078125 0  0.21875 0.078125 0  0.234375 0.078125 0  0.25 0.078125 0  0.265625 0.078125 0  0.28125 0.078125 0  0.296875 0.078125 0  0.3125 0.078125 0  0.328125 0.078125 0  0.34375 0.078125 0  0.359375 0.078125 0  0.375 0.078125 0  0.390625 0.078125 0  0.40625 0.078125 0  0.421875 0.078125 0  0.4375 0.078125 0  0.453125 0.078125 0  0.46875 0.078125 0  0.484375 0.078125 0  0.5 0.078125 0  0.515625 0.078125 0  0.53125 0.078125 0  0.546875 0.078125 0  0.5625 0.078125 0  0.578125 0.078125 0  0.59375 0.078125 0  0.609375 0.078125 0  0.625 0.078125 0  0.640625 0.078125 0  0.65625 0.078125 0  0.671875 0.078125 0  0.6875 0.078125 0  0.703125 0.078125 0  0.71875 0.078125 0  0.734375 0.078125 0  0.75 0.078125 0  0.765625 0.078125 0  0.78125 0.078125 0  0.796875 0.078125 0  0.8125 0.078125 0  0.828125 0.078125 0  0.84375 0.078125 0  0.859375 0.078125 0  0.875 0.078125 0  0.890625 0.078125 0  0.90625 0.078125 0  0.921875 0.078125 0  0.9375 0.078125 0  0.953125 0.078125 0  0.96875 0.078125 0  0.984375 0.078125 0  1 0.078125 0  0 0.09375 0  0.015625 0.09375 0  0.03125 0.09375 0  0.046875 0.09375 0  0.0625 0.09375 0  0.078125 0.09375 0  0.09375 0.09375 0  0.109375 0.09375 0  0.125 0.09375 0  0.140625 0.09375 0  0.15625 0.09375 0  0.171875 0.09375 0  0.1875 0.09375 0  0.203125 0.09375 0  0.21875 0.09375 0  0.234375 0.09375 0  0.25 0.09375 0  0.265625 0.09375 0  0.28125 0.09375 0  0.296875 0.09375 0  0.3125 0.09375 0  0.328125 0.09375 0  0.34375 0.09375 0  0.359375 0.09375 0  0.375 0.09375 0  0.390625 0.09375 0  0.40625 0.09375 0  0.421875 0.09375 0  0.4375 0.09375 0  0.453125 0.09375 0  0.46875 0.09375 0  0.484375 0.09375 0  0.5 0.09375 0  0.515625 0.09375 0  0.53125 0.09375 0  0.546875 0.09375 0  0.5625 0.09375 0  0.578125 0.09375 0  0.59375 0.09375 0  0.609375 0.09375 0  0.625 0.09375 0  0.640625 0.09375 0  0.65625 0.09375 0  0.671875 0.09375 0  0.6875 0.09375 0  0.703125 0.09375 0  0.71875 0.09375 0  0.734375 0.09375 0  0.75 0.09375 0  0.765625 0.09375 0  0.78125 0.09375 0  0.796875 0.09375 0  0.8125 0.09375 0  0.828125 0.09375 0  0.84375 0.09375 0  0.859375 0.09375 0  0.875 0.09375 0  0.890625 0.09375 0  0.90625 0.09375 0  0.921875 0.09375 0  0.9375 0.09375 0  0.953125 0.09375 0  0.96875 0.09375 0  0.984375 0.09375 0  1 0.09375 0  0 0.109375 0  0.015625 0.109375 0  0.03125 0.109375 0  0.046875 0.109375 0  0.0625 0.109375 0  0.078125 0.109375 0  0.09375 0.109375 0  0.109375 0.109375 0  0.125 0.109375 0  0.140625 0.109375 0  0.15625 0.109375 0  0.171875 0.109375 0  0.1875 0.109375 0  0.203125 0.109375 0  0.21875 0.109375 0  0.234375 0.109375 0  0.25 0.109375 0  0.265625 0.109375 0  0.28125 0.109375 0  0.296875 0.109375 0  0.3125 0.109375 0  0.328125 0.109375 0  0.34375 0.109375 0  0.359375 0.109375 0  0.375 0.109375 0  0.390625 0.109375 0  0.40625 0.109375 0  0.421875 0.109375 0  0.4375 0.109375 0  0.453125 0.109375 0  0.46875 0.109375 0  0.484375 0.109375 0  0.5 0.109375 0  0.515625 0.109375 0  0.53125 0.109375 0  0.546875 0.109375 0  0.5625 0.109375 0  0.578125 0.109375 0  0.59375 0.109375 0  0.609375 0.109375 0  0.625 0.109375 0  0.640625 0.109375 0  0.65625 0.109375 0  0.671875 0.109375 0  0.6875 0.109375 0  0.703125 0.109375 0  0.71875 0.109375 0  0.734375 0.109375 0  0.75 0.109375 0  0.765625 0.109375 0  0.78125 0.109375 0  0.796875 0.109375 0  0.8125 0.109375 0  0.828125 0.109375 0  0.84375 0.109375 0  0.859375 0.109375 0  0.875 0.109375 0  0.890625 0.109375 0  0.90625 0.109375 0  0.921875 0.109375 0  0.9375 0.109375 0  0.953125 0.109375 0  0.96875 0.109375 0  0.984375 0.109375 0  1 0.109375 0  0 0.125 0  0.015625 0.125 0  0.03125 0.125 0  0.046875 0.125 0  0.0625 0.125 0  0.078125 0.125 0  0.09375 0.125 0  0.109375 0.125 0  0.125 0.12
[...]
<PointData  Scalars="F2_1"> 
<DataArray  type="Float64"  Name="F2_1"  format="ascii">5.0000000000000133e+00  4.9947590992583422e+00  4.9896845763179929e+00  4.9847764311789611e+00  4.9800346638412574e+00  4.9754592743048782e+00  4.9710502625698245e+00  4.9668076286360909e+00  4.9627313725036792e+00  4.9588214941725823e+00  4.9550779936428127e+00  4.9515008709143835e+00  4.9480901259872612e+00  4.9448457588614652e+00  4.9417677695369910e+00  4.9388561580138353e+00  4.9361109242920085e+00  4.9335320683715054e+00  4.9311195902523233e+00  4.9288734899344631e+00  4.9267937674179212e+00  4.9248804227026994e+00  4.9231334557888280e+00  4.9215528666762589e+00  4.9201386553650126e+00  4.9188908218550882e+00  4.9178093661464857e+00  4.9168942882392122e+00  4.9161455881332623e+00  4.9155632658286308e+00  4.9151473213253176e+00  4.9148977546233308e+00  4.9148145657226632e+00  4.9148977546233441e+00  4.9151473213253318e+00  4.9155632658286326e+00  4.9161455881332579e+00  4.9168942882392139e+00  4.9178093661464901e+00  4.9188908218550944e+00  4.9201386553650091e+00  4.9215528666762545e+00  4.9231334557888147e+00  4.9248804227027199e+00  4.9267937674179345e+00  4.9288734899344693e+00  4.9311195902523206e+00  4.9335320683715054e+00  4.9361109242920103e+00  4.9388561580138415e+00  4.9417677695369937e+00  4.9448457588614634e+00  4.9480901259872541e+00  4.9515008709143711e+00  4.9550779936428304e+00  4.9588214941725903e+00  4.9627313725036801e+00  4.9668076286360856e+00  4.9710502625698174e+00  4.9754592743048800e+00  4.9800346638412618e+00  4.9847764311789646e+00  4.9896845763179831e+00  4.9947590992583280e+00  4.9999999999999938e+00  5.0781250000000169e+00  5.0728022101842480e+00  5.0676483978229587e+00  5.0626635629161374e+00  5.0578477054637814e+00  5.0532008254658951e+00  5.0487229229224759e+00  5.0444139978335230e+00  5.0402740501990397e+00  5.0363030800190254e+00  5.0325010872934826e+00  5.0288680720224237e+00  5.0254040342058159e+00  5.0221089738436770e+00  5.0189828909360079e+00  5.0160257854828041e+00  5.0132376574840709e+00  5.0106185069398084e+00  5.0081683338500103e+00  5.0058871382146810e+00  5.0037749200338197e+00  5.0018316793074362e+00  5.0000574160355287e+00  4.9984521302180802e+00  4.9970158218550909e+00  4.9957484909465748e+00  4.9946501374925338e+00  4.9937207614929520e+00  4.9929603629478416e+00  4.9923689418571993e+00  4.9919464982210249e+00  4.9916930320393211e+00  4.9916085433120907e+00  4.9916930320393300e+00  4.9919464982210382e+00  4.9923689418572081e+00  4.9929603629478461e+00  4.9937207614929511e+00  4.9946501374925294e+00  4.9957484909465730e+00  4.9970158218550855e+00  4.9984521302180607e+00  5.0000574160355136e+00  5.0018316793074495e+00  5.0037749200338331e+00  5.0058871382146917e+00  5.0081683338500183e+00  5.0106185069398137e+00  5.0132376574840745e+00  5.0160257854828068e+00  5.0189828909360035e+00  5.0221089738436664e+00  5.0254040342058000e+00  5.0288680720224104e+00  5.0325010872935030e+00  5.0363030800190387e+00  5.0402740501990486e+00  5.0444139978335301e+00  5.0487229229224759e+00  5.0532008254658916e+00  5.0578477054637752e+00  5.0626635629161303e+00  5.0676483978229463e+00  5.0728022101842392e+00  5.0781250000000009e+00  5.1562500000000142e+00  5.1508453211101646e+00  5.1456122193279228e+00  5.1405506946533013e+00  5.1356607470862956e+00  5.1309423766269076e+00  5.1263955832751282e+00  5.1220203670309639e+00  5.1178167278944144e+00  5.1137846658654782e+00  5.1099241809441560e+00  5.1062352731304594e+00  5.1027179424243654e+00  5.0993721888258845e+00  5.0961980123350186e+00  5.0931954129517667e+00  5.0903643906761333e+00  5.0877049455081123e+00  5.0852170774477070e+00  5.0829007864949132e+00  5.0807560726497307e+00  5.0787829359121686e+00  5.0769813762822285e+00  5.0753513937598917e+00  5.0738929883451673e+00  5.0726061600380561e+00  5.0714909088385625e+00  5.0705472347466864e+00  5.0697751377624245e+00  5.0691746178857731e+00  5.0687456751167392e+00  5.0684883094553150e+00  5.0684025209015093e+00  5.0684883094553230e+00  5.0687456751167437e+00  5.0691746178857748e+00  5.0697751377624218e+00  5.0705472347466864e+00  5.0714909088385660e+00  5.0726061600380605e+00  5.0738929883451691e+00  5.0753513937598864e+00  5.0769813762822169e+00  5.0787829359121801e+00  5.0807560726497405e+00  5.0829007864949158e+00  5.0852170774477052e+00  5.0877049455081131e+00  5.0903643906761351e+00  5.0931954129517711e+00  5.0961980123350177e+00  5.0993721888258827e+00  5.1027179424243583e+00  5.1062352731304514e+00  5.1099241809441702e+00  5.1137846658654844e+00  5.1178167278944127e+00  5.1220203670309621e+00  5.1263955832751247e+00  5.1309423766269031e+00  5.1356607470862956e+00  5.1405506946533022e+00  5.1456122193279192e+00  5.1508453211101575e+00  5.1562500000000062e+00  5.2343750000000062e+00  5.2288884320360758e+00  5.2235760408328931e+00  5.2184378263904732e+00  5.2134737887088116e+00  5.2086839277879138e+00  5.2040682436277770e+00  5.1996267362284012e+00  5.1953594055897856e+00  5.1912662517119266e+00  5.1873472745948277e+00  5.1836024742384934e+00  5.1800318506429157e+00  5.1766354038080955e+00  5.1734131337340310e+00  5.1703650404207320e+00  5.1674911238681922e+00  5.1647913840764135e+00  5.1622658210453984e+00  5.1599144347751409e+00  5.1577372252656399e+00  5.1557341925168991e+00  5.1539053365289274e+00  5.1522506573017042e+00  5.1507701548352456e+00  5.1494638291295400e+00  5.1483316801845991e+00  5.1473737080004209e+00  5.1465899125770047e+00  5.1459802939143451e+00  5.1455448520124483e+00  5.1452835868713063e+00  5.1451964984909262e+00  5.1452835868713116e+00  5.1455448520124492e+00  5.1459802939143477e+00  5.1465899125770020e+00  5.1473737080004218e+00  5.1483316801846035e+00  5.1494638291295445e+00  5.1507701548352474e+00  5.1522506573017059e+00  5.1539053365289211e+00  5.1557341925169098e+00  5.1577372252656462e+00  5.1599144347751400e+00  5.1622658210453993e+00  5.1647913840764135e+00  5.1674911238681940e+00  5.1703650404207329e+00  5.1734131337340354e+00  5.1766354038080937e+00  5.1800318506429113e+00  5.1836024742384899e+00  5.1873472745948348e+00  5.1912662517119301e+00  5.1953594055897856e+00  5.1996267362283994e+00  5.2040682436277752e+00  5.2086839277879147e+00  5.2134737887088143e+00  5.2184378263904749e+00  5.2235760408328922e+00  5.2288884320360696e+00  5.2343750000000053e+00  5.3125000000000053e+00  5.3069315429619834e+00  5.3015398623378589e+00  5.2963249581276397e+00  5.2912868303313356e+00  5.2864254789489280e+00  5.2817409039804302e+00  5.2772331054258386e+00  5.2729020832851532e+00  5.2687478375583723e+00  5.2647703682454949e+00  5.2609696753465283e+00  5.2573457588614652e+00  5.2538986187903021e+00  5.2506282551330505e+00  5.2475346678897026e+00  5.2446178570602555e+00  5.2418778226447200e+00  5.2393145646430899e+00  5.2369280830553659e+00  5.2347183778815412e+00  5.2326854491216279e+00  5.2308292967756254e+00  5.2291499208435219e+00  5.2276473213253221e+00  5.2263214982210302e+00  5.2251724515306437e+00  5.2242001812541599e+00  5.2234046873915840e+00  5.2227859699429171e+00  5.2223440289081537e+00  5.2220788642872966e+00  5.2219904760803422e+00  5.2220788642872975e+00  5.2223440289081573e+00  5.2227859699429171e+00  5.2234046873915876e+00  5.2242001812541607e+00  5.2251724515306419e+00  5.2263214982210284e+00  5.2276473213253238e+00  5.2291499208435219e+00  5.2308292967756227e+00  5.2326854491216341e+00  5.2347183778815500e+00  5.2369280830553651e+00  5.2393145646430925e+00  5.2418778226447236e+00  5.2446178570602573e+00  5.2475346678897008e+00  5.2506282551330479e+00  5.2538986187903038e+00  5.2573457588614598e+00  5.2609696753465256e+00  5.2647703682455038e+00  5.2687478375583767e+00  5.2729020832851523e+00  5.2772331054258421e+00  5.2817409039804319e+00  5.2864254789489307e+00  5.2912868303313330e+00  5.2963249581276424e+00  5.3015398623378580e+00  5.3069315429619799e+00  5.3125000000000062e+00  5.3906250000000071e+00  5.3849746538878929e+00  5.3795036838428292e+00  5.3742120898648116e+00  5.3690998719538507e+00  5.3641670301099538e+00  5.3594135643330869e+00  5.3548394746232804e+00  5.3504447609805226e+00  5.3462294234048162e+00  5.3421934618961613e+00  5.3383368764545649e+00  5.3346596670800164e+00  5.3311618337725113e+00  5.3278433765320612e+00  5.3247042953586678e+00  5.3217445902523268e+00  5.3189642612130283e+00  5.3163633082407822e+00  5.3139417313355866e+00  5.3116995304974477e+00  5.3096367057263585e+00  5.3077532570223278e+00  5.3060491843853370e+00  5.3045244878153968e+00  5.3031791673125106e+00  5.3020132228766856e+00  5.3010266545079023e+00  5.3002194622061705e+00  5.2995916459714909e+00  5.2991432058038601e+00  5.2988741417032825e+00  5.2987844536697573e+00  5.2988741417032905e+00  5.2991432058038654e+00  5.2995916459714891e+00  5.3002194622061714e+00  5.3010266545079050e+00  5.3020132228766856e+00  5.3031791673125186e+00  5.3045244878154012e+00  5.3060491843853343e+00  5.3077532570223189e+00  5.3096367057263647e+00  5.3116995304974566e+00  5.3139417313355937e+00  5.3163633082407822e+00  5.3189642612130301e+00  5.3217445902523250e+00  5.3247042953586714e+00  5.3278433765320656e+00  5.3311618337725122e+00  5.3346596670800102e+00  5.3383368764545596e+00  5.3421934618961693e+00  5.3462294234048215e+00  5.3504447609805226e+00  5.3548394746232759e+00  5.3594135643330896e+00  5.3641670301099476e+00  5.3690998719538552e+00  5.3742120898648134e+00  5.3795036838428238e+00  5.3849746538878875e+00  5.3906250000000036e+00  5.4687500000000098e+00  5.4630177648138032e+00  5.4574675053477959e+00  5.4520992216019852e+00  5.4469129135763703e+00  5.4419085812709600e+00  5.4370862246857472e+00  5.4324458438207248e+00  5.4279874386758928e+00  5.4237110092512619e+00  5.4196165555468294e+00  5.4157040775626015e+00  5.4119735752985676e+00  5.4084250487547259e+00  5.4050584979310763e+00  5.4018739228276305e+00  5.3988713234443892e+00  5.3960506997813393e+00  5.3934120518384798e+00  5.3909553796158161e+00  5.3886806831133480e+00  5.3865879623310828e+00  5.3846772172690232e+00  5.3829484479271539e+00  5.3814016543054768e+00  5.3800368364039972e+00  5.3788539942227214e+00  5.3778531277616466e+00  5.3770342370207596e+00  5.3763973220000656e+00  5.3759423826995674e+00  5.3756694191192693e+00  5.3755784312591750e+00  5.3756694191192791e+00  5.3759423826995754e+00  5.3763973220000620e+00  5.3770342370207498e+00  5.3778531277616430e+00  5.3788539942227258e+00  5.3800368364040123e+00  5.3814016543054830e+00  5.3829484479271494e+00  5.3846772172690178e+00  5.3865879623310926e+00  5.3886806831133596e+00  5.3909553796158196e+00  5.3934120518384754e+00  5.3960506997813313e+00  5.3988713234443901e+00  5.4018739228276420e+00  5.4050584979310861e+00  5.4084250487547250e+00  5.4119735752985587e+00  5.4157040775625953e+00  5.4196165555468392e+00  5.4237110092512681e+00  5.4279874386758920e+00  5.4324458438207133e+00  5.4370862246857410e+00  5.4419085812709671e+00  5.4469129135763819e+00  5.4520992216019915e+00  5.4574675053477932e+00  5.4630177648137952e+00  5.4687500000000053e+00  5.5468750000000115e+00  5.5410608757397117e+00  5.5354313268527644e+00  5.5299863533391580e+00  5.5247259551988925e+00  5.5196501324319742e+00  5.5147588850384013e+00  5.5100522130181648e+00  5.5055301163712667e+00  5.5011925950977103e+00  5.4970396491974993e+00  5.4930712786706373e+00  5.4892874835171162e+00  5.4856882637369351e+00  5.4822736193300940e+00  5.4790435502965975e+00  5.4759980566364472e+00  5.4731371383496450e+00  5.4704607954361784e+00  5.4679690278960447e+00  5.4656618357292537e+00  5.4635392189358125e+00  5.4616011775157229e+00  5.4598477114689707e+00  5.4582788207955577e+00  5.4568945054954865e+00  5.4556947655687589e+00  5.4546796010153784e+00  5.4538490118353424e+00  5.4532029980286421e+00  5.4527415595952800e+00  5.4524646965352552e+00  5.4523724088485892e+00  5.4524646965352694e+00  5.4527415595952844e+00  5.4532029980286350e+00  5.4538490118353291e+00  5.4546796010153757e+00  5.4556947655687713e+00  5.4568945054954963e+00  5.4582788207955639e+00  5.4598477114689681e+00  5.4616011775157176e+00  5.4635392189358214e+00  5.4656618357292661e+00  5.4679690278960464e+00  5.4704607954361686e+00  5.4731371383496343e+00  5.4759980566364499e+00  5.4790435502966091e+00  5.4822736193301056e+00  5.4856882637369395e+00  5.4892874835171099e+00  5.4930712786706319e+00  5.4970396491975055e+00  5.5011925950977165e+00  5.5055301163712640e+00  5.5100522130181568e+00  5.5147588850383924e+00  5.5196501324319778e+00  5.5247259551989014e+00  5.5299863533391669e+00  5.5354313268527653e+00  5.5410608757397064e+00  5.5468750000000036e+00  5.6250000000000089e+00  5.6191039866656176e+00  5.6133951483577338e+00  5.6078734850763308e+00  5.6025389968214139e+00  5.5973916835929849e+00  5.5924315453910474e+00  5.5876585822155995e+00  5.5830727940666360e+00  5.5786741809441605e+00  5.5744627428481692e+00  5.5704384797786748e+00  5.5666013917356647e+00  5.5629514787191479e+00  5.5594887407291109e+00  5.5562131777655646e+00  5.5531247898285088e+00  5.5502235769179435e+00  5.5475095390338680e+00  5.5449826761762715e+00  5.5426429883451629e+00  5.5404904755405404e+00  5.5385251377624201e+00  5.5367469750107849e+00  5.5351559872856386e+00  5.5337521745869731e+00  5.5325355369147964e+00  5.5315060742691120e+00  5.5306637866499226e+00  5.5300086740572159e+00  5.5295407364909925e+00  5.5292599739512509e+00  5.5291663864380070e+00  5.5292599739512536e+00  5.5295407364909881e+00  5.5300086740572114e+00  5.5306637866499138e+00  5.5315060742691093e+00  5.5325355369147982e+00  5.5337521745869811e+00  5.5351559872856377e+00  5.5367469750107885e+00  5.5385251377624174e+00  5.5404904755405493e+00  5.5426429883451647e+00  5.5449826761762724e+00  5.5475095390338618e+00  5.5502235769179382e+00  5.5531247898285070e+00  5.5562131777655699e+00  5.5594887407291216e+00  5.5629514787191514e+00  5.5666013917356638e+00  5.5704384797786659e+00  5.5744627428481692e+00  5.5786741809441587e+00  5.5830727940666360e+00  5.5876585822155986e+00  5.5924315453910456e+00  5.5973916835929867e+00  5.6025389968214192e+00  5.6078734850763361e+00  5.6133951483577373e+00  5.6191039866656221e+00  5.6250000000000027e+00  5.7031250000000044e+00  5.6971470975915288e+00  5.6913589698626996e+00  5.6857606168135018e+00  5.6803520384439325e+00  5.6751332347539973e+00  5.6701042057436961e+00  5.6652649514130324e+00  5.6606154717620054e+00  5.6561557667906071e+00  5.6518858364988374e+00  5.6478056808867025e+00  5.6439152999542150e+00  5.6402146937013553e+00  5.6367038621281278e+00  5.6333828052345307e+00  5.6302515230205650e+00  5.6273100154862394e+00  5.6245582826315497e+00  5.6219963244564948e+00  5.6196241409610703e+00  5.6174417321452745e+00  5.6154490980091154e+00  5.6136462385525991e+00  5.6120331537757142e+00  5.6106098436784615e+00  5.6093763082608366e+00  5.6083325475228465e+00  5.6074785614644966e+00  5.6068143500857808e+00  5.6063399133866962e+00  5.6060552513672413e+00  5.6059603640274238e+00  5.6060552513672350e+00  5.6063399133866954e+00  5.6068143500857826e+00  5.6074785614644984e+00  5.6083325475228483e+00  5.6093763082608348e+00  5.6106098436784571e+00  5.6120331537757160e+00  5.6136462385526018e+00  5.6154490980091190e+00  5.6174417321452736e+00  5.6196241409610685e+00  5.6219963244564974e+00  5.6245582826315577e+00  5.6273100154862483e+00  5.6302515230205703e+00  5.6333828052345281e+00  5.6367038621281251e+00  5.6402146937013589e+00  5.6439152999542177e+00  5.6478056808867088e+00  5.6518858364988311e+00  5.6561557667906035e+00  5.6606154717620045e+00  5.6652649514130378e+00  5.6701042057436997e+00  5.6751332347539947e+00  5.6803520384439308e+00  5.6857606168134982e+00  5.6913589698626996e+00  5.6971470975915350e+00  5.7031250000000044e+00  5.7812500000000009e+00  5.7751902085174436e+00  5.7693227913676681e+00  5.7636477485506710e+00  5.7581650800664503e+00  5.7528747859150098e+00  5.7477768660963484e+00  5.7428713206104662e+00  5.7381581494573659e+00  5.7336373526370474e+00  5.7293089301495073e+00  5.7251728819947418e+00  5.7212292081727663e+00  5.7174779086835610e+00  5.7139189835271420e+00  5.7105524327034960e+00  5.7073782562126327e+00  5.7043964540545478e+00  5.7016070262292393e+00  5.6990099727367163e+00  5.6966052935769707e+00  5.6943929887500078e+00  5.6923730582558179e+00  5.6905455020944142e+00  5.6889103202657907e+00  5.6874675127699490e+00  5.6862170796068749e+00  5.6851590207765845e+00  5.6842933362790742e+00  5.6836200261143492e+00  5.6831390902823973e+00  5.6828505287832307e+00  5.6827543416168425e+00  5.6828505287832272e+00  5.6831390902824008e+00  5.6836200261143555e+00  5.6842933362790813e+00  5.6851590207765881e+00  5.6862170796068723e+00  5.6874675127699383e+00  5.6889103202657880e+00  5.6905455020944133e+00  5.6923730582558196e+00  5.6943929887500015e+00  5.6966052935769724e+00  5.6990099727367216e+00  5.7016070262292491e+00  5.7043964540545522e+00  5.7073782562126381e+00  5.7105524327034960e+00  5.7139189835271349e+00  5.7174779086835610e+00  5.7212292081727645e+00  5.7251728819947481e+00  5.7293089301495037e+00  5.7336373526370483e+00  5.7381581494573766e+00  5.7428713206104751e+00  5.7477768660963502e+00  5.7528747859150098e+00  5.7581650800664459e+00  5.7636477485506665e+00  5.7693227913676601e+00  5.7751902085174471e+00  5.7812500000000036e+00  5.8593750000000151e+00  5.8532333194433672e+00  5.8472866128726491e+00  5.8415348802878437e+00  5.8359781216889752e+00  5.8306163370760284e+00  5.8254495264490105e+00  5.8204776898079125e+00  5.8157008271527424e+00  5.8111189384834905e+00  5.8067320238001754e+00  5.8025400831027945e+00  5.7985431163913290e+00  5.7947411236657853e+00  5.7911341049261642e+00  5.7877220601724648e+00  5.7845049894046987e+00  5.7814828926228587e+00  5.7786557698269352e+00  5.7760236210169476e+00  5.7735864461928710e+00  5.7713442453547321e+00  5.7692970185025310e+00  5.7674447656362418e+00  5.7657874867558752e+00  5.7643251818614321e+00  5.7630578509529178e+00  5.7619854940303270e+00  5.7611081110936651e+00  5.7604257021429239e+00  5.7599382671781045e+00  5.7596458061992131e+00  5.7595483192062451e+00  5.7596458061992424e+00  5.7599382671781241e+00  5.7604257021429328e+00  5.7611081110936686e+00  5.7619854940303306e+00  5.7630578509529213e+00  5.7643251818614338e+00  5.7657874867558672e+00  5.7674447656362222e+00  5.7692970185025176e+00  5.7713442453547410e+00  5.7735864461928958e+00  5.7760236210169520e+00  5.7786557698269441e+00  5.7814828926228561e+00  5.7845049894047040e+00  5.7877220601724693e+00  5.7911341049261607e+00  5.7947411236657702e+00  5.7985431163913104e+00  5.8025400831027731e+00  5.8067320238001958e+00  5.8111189384835100e+00  5.8157008271527477e+00  5.8204776898079160e+00  5.8254495264490114e+00  5.8306163370760320e+00  5.8359781216889743e+00  5.8415348802878455e+00  5.8472866128726348e+00  5.8532333194433521e+00  5.8593749999999947e+00  5.9375000000000133e+00  5.9312764303692784e+00  5.9252504343776122e+00  5.9194220120250201e+00  5.9137911633114957e+00  5.9083578882370444e+00  5.9031221868016646e+00  5.8980840590053560e+00  5.8932435048481135e+00  5.8886005243299451e+00  5.8841551174508462e+00  5.8799072842108355e+00  5.8758570246098740e+00  5.8720043386479954e+00  5.8683492263251793e+00  5.8648916876414390e+00  5.8616317225967629e+00  5.8585693311911635e+00  5.8557045134246346e+00  5.8530372692971699e+00  5.8505675988087837e+00  5.8482955019594645e+00  5.8462209787492370e+00  5.8443440291780577e+00  5.8426646532459525e+00  5.8411828509529213e+00  5.8398986222989615e+00  5.8388119672840668e+00  5.8379228859082479e+00  5.8372313781714995e+00  5.8367374440738153e+00  5.8364410836152096e+00  5.8363422967956753e+00  5.8364410836152238e+00  5.8367374440738340e+00  5.8372313781715057e+00  5.8379228859082497e+00  5.8388119672840695e+00  5.8398986222989588e+00  5.8411828509529213e+00  5.8426646532459490e+00  5.8443440291780480e+00  5.8462209787492219e+00  5.8482955019594840e+00  5.8505675988087891e+00  5.8530372692971815e+00  5.8557045134246373e+00  5.8585693311911680e+00  5.8616317225967647e+00  5.8648916876414363e